/*--------------------------------*- C++ -*----------------------------------*\
| =========                 |                                                 |
| \\      /  F ield         | OpenFOAM: The Open Source CFD Toolbox           |
|  \\    /   O peration     | Version:  v1912                                 |
|   \\  /    A nd           | Website:  www.openfoam.com                      |
|    \\/     M anipulation  |                                                 |
\*---------------------------------------------------------------------------*/
FoamFile
{
    version     2.0;
    format      ascii;
    class       volScalarField;
    location    "31187";
    object      epsilon;
}
// * * * * * * * * * * * * * * * * * * * * * * * * * * * * * * * * * * * * * //

dimensions      [0 2 -3 0 0 0 0];


internalField   nonuniform List<scalar> 
9000
(
0.000506163
0.00050706
0.000505974
0.000503181
0.000499872
0.000498292
0.000500084
0.000503989
0.000505985
0.000502928
0.000496544
0.000493259
0.000498189
0.000508646
0.000516102
0.000514013
0.000502423
0.000488725
0.000483594
0.000491051
0.000504738
0.000515305
0.000517413
0.000511461
0.000501989
0.000494376
0.00049181
0.000494263
0.000498931
0.000503278
0.000267589
0.000268095
0.000267433
0.000265773
0.000263832
0.000262926
0.000264003
0.0002663
0.000267444
0.000265609
0.000261863
0.000259992
0.000262947
0.000269112
0.000273454
0.00027212
0.000265226
0.000257222
0.000254326
0.000258781
0.000266848
0.000273039
0.000274202
0.000270613
0.000265009
0.000260564
0.000259108
0.000260587
0.000263347
0.000265904
0.000205415
0.00020576
0.000205202
0.000203893
0.000202404
0.000201754
0.000202635
0.000204407
0.000205223
0.000203733
0.000200853
0.000199528
0.000201941
0.000206717
0.000209934
0.000208701
0.000203256
0.000197151
0.000195138
0.000198775
0.000205051
0.000209729
0.000210452
0.000207538
0.000203171
0.000199797
0.000198777
0.000200006
0.000202175
0.000204145
0.000182153
0.000182399
0.000181881
0.000180747
0.000179499
0.000178999
0.000179794
0.000181289
0.000181911
0.000180579
0.000178157
0.000177156
0.000179328
0.000183378
0.000185956
0.000184713
0.000179995
0.000174904
0.000173422
0.0001767
0.000182054
0.000185898
0.000186332
0.000183733
0.000180005
0.000177211
0.000176452
0.000177579
0.000179451
0.000181113
0.000170188
0.00017036
0.000169873
0.000168866
0.000167796
0.000167406
0.000168139
0.00016943
0.000169909
0.000168693
0.000166606
0.000165843
0.00016784
0.000171357
0.000173464
0.000172212
0.000168028
0.000163681
0.000162589
0.000165607
0.000170285
0.000173513
0.000173734
0.000171366
0.000168108
0.000165741
0.000165174
0.000166228
0.000167881
0.000169317
0.000161657
0.000161774
0.000161313
0.000160412
0.000159484
0.00015918
0.000159859
0.000160987
0.000161355
0.000160236
0.000158418
0.000157839
0.000159685
0.000162773
0.000164511
0.000163266
0.000159518
0.000155766
0.000154973
0.000157765
0.000161895
0.000164638
0.0001647
0.000162527
0.000159651
0.000157623
0.000157204
0.000158191
0.000159666
0.000160919
0.000154333
0.000154408
0.000153972
0.000153158
0.000152344
0.000152107
0.000152739
0.000153735
0.000154017
0.00015298
0.00015138
0.000150942
0.000152659
0.000155399
0.000156848
0.000155619
0.000152231
0.000148957
0.000148393
0.00015099
0.000154672
0.000157029
0.000156974
0.000154968
0.000152403
0.000150647
0.000150341
0.000151268
0.000152595
0.0001537
0.000147592
0.000147635
0.000147222
0.00014648
0.000145758
0.000145573
0.000146165
0.000147054
0.000147268
0.0001463
0.000144875
0.000144549
0.000146156
0.000148614
0.000149834
0.000148625
0.000145533
0.000142645
0.000142258
0.000144687
0.000148005
0.000150053
0.000149911
0.000148046
0.000145735
0.000144197
0.000143978
0.000144852
0.000146058
0.000147044
0.000141257
0.000141275
0.00014088
0.000140198
0.000139551
0.000139408
0.000139967
0.000140768
0.000140926
0.000140017
0.000138736
0.000138499
0.000140014
0.000142241
0.000143274
0.000142086
0.000139239
0.000136665
0.000136418
0.000138706
0.000141724
0.000143524
0.000143313
0.000141567
0.000139465
0.000138105
0.000137954
0.000138782
0.000139888
0.000140776
0.00013527
0.000135268
0.000134891
0.000134257
0.000133674
0.000133565
0.000134095
0.000134822
0.000134936
0.000134075
0.000132914
0.00013275
0.000134187
0.000136221
0.000137102
0.000135933
0.00013329
0.000130977
0.000130844
0.000133011
0.000135781
0.000137375
0.000137111
0.000135465
0.000133537
0.000132322
0.000132226
0.000133016
0.000134037
0.000134845
0.00012961
0.000129592
0.000129228
0.000128637
0.000128106
0.000128026
0.000128532
0.000129196
0.000129271
0.000128452
0.000127393
0.00012729
0.000128661
0.000130532
0.000131284
0.000130131
0.000127663
0.00012557
0.000125531
0.000127595
0.000130155
0.000131577
0.000131268
0.000129708
0.000127928
0.000126835
0.000126785
0.00012754
0.000128491
0.000129231
0.000124259
0.000124227
0.000123875
0.00012332
0.000122835
0.000122779
0.000123263
0.000123873
0.000123915
0.000123133
0.000122163
0.000122113
0.000123426
0.000125156
0.000125795
0.000124658
0.00012234
0.000120437
0.000120479
0.000122453
0.000124833
0.000126107
0.000125761
0.000124275
0.000122621
0.000121634
0.000121621
0.000122347
0.000123237
0.000123919
0.000119201
0.000119157
0.000118816
0.000118293
0.000117848
0.000117813
0.000118278
0.000118839
0.000118853
0.000118104
0.000117211
0.000117208
0.000118469
0.000120075
0.000120616
0.000119492
0.000117308
0.000115571
0.000115683
0.000117578
0.000119799
0.000120944
0.000120567
0.000119147
0.000117604
0.000116707
0.000116727
0.000117427
0.000118264
0.000118896
0.000114421
0.000114366
0.000114035
0.00011354
0.00011313
0.000113114
0.000113561
0.000114079
0.000114067
0.000113348
0.000112526
0.000112564
0.000113778
0.000115271
0.000115726
0.000114615
0.000112551
0.000110963
0.000111135
0.000112958
0.000115038
0.000116069
0.000115665
0.000114304
0.000112859
0.000112043
0.000112092
0.000112767
0.000113557
0.000114146
0.0001099
0.000109836
0.000109514
0.000109044
0.000108667
0.000108667
0.000109096
0.000109575
0.000109541
0.000108851
0.000108093
0.000108167
0.000109336
0.000110728
0.000111105
0.000110008
0.000108053
0.000106599
0.000106825
0.000108581
0.000110532
0.000111462
0.000111035
0.000109728
0.000108372
0.000107629
0.000107702
0.000108355
0.000109103
0.000109651
0.000105622
0.00010555
0.000105236
0.00010479
0.000104442
0.000104456
0.000104869
0.000105312
0.000105259
0.000104596
0.000103898
0.000104002
0.00010513
0.000106427
0.000106734
0.000105652
0.0001038
0.000102468
0.00010274
0.000104432
0.000106266
0.000107105
0.000106658
0.000105402
0.000104128
0.000103449
0.000103543
0.000104176
0.000104884
0.000105397
0.00010157
0.000101491
0.000101186
0.000100763
0.000100441
0.000100468
0.000100865
0.000101273
0.000101204
0.000100568
9.99243e-05
0.000100057
0.000101142
0.000102352
0.000102596
0.000101531
9.97752e-05
9.85551e-05
9.88668e-05
0.000100498
0.000102223
0.000102978
0.000102516
0.000101308
0.00010011
9.94898e-05
9.96028e-05
0.000100215
0.000100888
0.000101368
9.77303e-05
9.76456e-05
9.73484e-05
9.69465e-05
9.66495e-05
9.66864e-05
9.70675e-05
9.7445e-05
9.73613e-05
9.67526e-05
9.61594e-05
9.63153e-05
9.73598e-05
9.84876e-05
9.86745e-05
9.76285e-05
9.59649e-05
9.4848e-05
9.51931e-05
9.67644e-05
9.8388e-05
9.90673e-05
9.85926e-05
9.74322e-05
9.63038e-05
9.57377e-05
9.58663e-05
9.64586e-05
9.70978e-05
9.75479e-05
9.40873e-05
9.39977e-05
9.3709e-05
9.33273e-05
9.3053e-05
9.30987e-05
9.34639e-05
9.38124e-05
9.3717e-05
9.31347e-05
9.2589e-05
9.27645e-05
9.37681e-05
9.48188e-05
9.49553e-05
9.39307e-05
9.2355e-05
9.13332e-05
9.17058e-05
9.32177e-05
9.47457e-05
9.53563e-05
9.48732e-05
9.37586e-05
9.26962e-05
9.21792e-05
9.23207e-05
9.28933e-05
9.35007e-05
9.39229e-05
9.06279e-05
9.05344e-05
9.02544e-05
8.98919e-05
8.96387e-05
8.96915e-05
9.00409e-05
9.03624e-05
9.02576e-05
8.97017e-05
8.92001e-05
8.93916e-05
9.03541e-05
9.13324e-05
9.14244e-05
9.04238e-05
8.89325e-05
8.79984e-05
8.83925e-05
8.98453e-05
9.12832e-05
9.18316e-05
9.13436e-05
9.0274e-05
8.92738e-05
8.88016e-05
8.89535e-05
8.95063e-05
9.00836e-05
9.04798e-05
8.73396e-05
8.72433e-05
8.69721e-05
8.66282e-05
8.63943e-05
8.64529e-05
8.67865e-05
8.70829e-05
8.69708e-05
8.64412e-05
8.59807e-05
8.61846e-05
8.71058e-05
8.80161e-05
8.80693e-05
8.70949e-05
8.5685e-05
8.48316e-05
8.52417e-05
8.66355e-05
8.79883e-05
8.84805e-05
8.7991e-05
8.69658e-05
8.60242e-05
8.55929e-05
8.57527e-05
8.62857e-05
8.68343e-05
8.72062e-05
8.42111e-05
8.41128e-05
8.38508e-05
8.35247e-05
8.33087e-05
8.33715e-05
8.36894e-05
8.39626e-05
8.38453e-05
8.33418e-05
8.29193e-05
8.31323e-05
8.40123e-05
8.48586e-05
8.48783e-05
8.39326e-05
8.2601e-05
8.18216e-05
8.22426e-05
8.35775e-05
8.48498e-05
8.52914e-05
8.48035e-05
8.38222e-05
8.29362e-05
8.2542e-05
8.27076e-05
8.32206e-05
8.37416e-05
8.4091e-05
8.12318e-05
8.11325e-05
8.08798e-05
8.05709e-05
8.03714e-05
8.04372e-05
8.07394e-05
8.09911e-05
8.08705e-05
8.03928e-05
8.00055e-05
8.02245e-05
8.10634e-05
8.18496e-05
8.18408e-05
8.09259e-05
7.96697e-05
7.8958e-05
7.93851e-05
8.06613e-05
8.18575e-05
8.22537e-05
8.17705e-05
8.08326e-05
7.99991e-05
7.96386e-05
7.98078e-05
8.03006e-05
8.07953e-05
8.11236e-05
7.83922e-05
7.82927e-05
7.80495e-05
7.77571e-05
7.75726e-05
7.76403e-05
7.7927e-05
7.81589e-05
7.80367e-05
7.75844e-05
7.72295e-05
7.74517e-05
7.82496e-05
7.89798e-05
7.89472e-05
7.80649e-05
7.68811e-05
7.62312e-05
7.66598e-05
7.78776e-05
7.90019e-05
7.93577e-05
7.8882e-05
7.7987e-05
7.7203e-05
7.6873e-05
7.70438e-05
7.75165e-05
7.79859e-05
7.82946e-05
7.56833e-05
7.55844e-05
7.53509e-05
7.50744e-05
7.49037e-05
7.49721e-05
7.52436e-05
7.54573e-05
7.53349e-05
7.49076e-05
7.45824e-05
7.48053e-05
7.55626e-05
7.62404e-05
7.61885e-05
7.53402e-05
7.42259e-05
7.36322e-05
7.40583e-05
7.52181e-05
7.62746e-05
7.65946e-05
7.61289e-05
7.52761e-05
7.4539e-05
7.42365e-05
7.44072e-05
7.48595e-05
7.53047e-05
7.5595e-05
7.30969e-05
7.29993e-05
7.27757e-05
7.25143e-05
7.23562e-05
7.24245e-05
7.2681e-05
7.2878e-05
7.27568e-05
7.2354e-05
7.2056e-05
7.22772e-05
7.29945e-05
7.36235e-05
7.35564e-05
7.27434e-05
7.16955e-05
7.11527e-05
7.15727e-05
7.26751e-05
7.36677e-05
7.39562e-05
7.35027e-05
7.26915e-05
7.19985e-05
7.17207e-05
7.18897e-05
7.23216e-05
7.27437e-05
7.30169e-05
7.06256e-05
7.05299e-05
7.03162e-05
7.00694e-05
6.99228e-05
6.99901e-05
7.0232e-05
7.04137e-05
7.02949e-05
6.99158e-05
6.96427e-05
6.98601e-05
7.05381e-05
7.11219e-05
7.10431e-05
7.02663e-05
6.92819e-05
6.87849e-05
6.91958e-05
7.02416e-05
7.11739e-05
7.1435e-05
7.09956e-05
7.02252e-05
6.95739e-05
6.93181e-05
6.94839e-05
6.98957e-05
7.02955e-05
7.05528e-05
6.82624e-05
6.81693e-05
6.79655e-05
6.77326e-05
6.75964e-05
6.7662e-05
6.78896e-05
6.80575e-05
6.7942e-05
6.7586e-05
6.73354e-05
6.75473e-05
6.81869e-05
6.87288e-05
6.86418e-05
6.79018e-05
6.69777e-05
6.65219e-05
6.69208e-05
6.79111e-05
6.87868e-05
6.9024e-05
6.86006e-05
6.78701e-05
6.72579e-05
6.70218e-05
6.71832e-05
6.75748e-05
6.79534e-05
6.81958e-05
6.6001e-05
6.59109e-05
6.5717e-05
6.54974e-05
6.53705e-05
6.54339e-05
6.56477e-05
6.58029e-05
6.56916e-05
6.53579e-05
6.51276e-05
6.53327e-05
6.59348e-05
6.6438e-05
6.63458e-05
6.56428e-05
6.47761e-05
6.43572e-05
6.47419e-05
6.56778e-05
6.65003e-05
6.6717e-05
6.63108e-05
6.56192e-05
6.50439e-05
6.48252e-05
6.49811e-05
6.53529e-05
6.57111e-05
6.59397e-05
6.38354e-05
6.37488e-05
6.35647e-05
6.33577e-05
6.32394e-05
6.33e-05
6.35004e-05
6.36441e-05
6.35378e-05
6.32254e-05
6.30136e-05
6.32105e-05
6.37762e-05
6.42438e-05
6.4149e-05
6.34831e-05
6.26708e-05
6.22848e-05
6.26532e-05
6.35361e-05
6.43087e-05
6.4508e-05
6.41202e-05
6.34665e-05
6.29257e-05
6.27225e-05
6.2872e-05
6.32241e-05
6.35629e-05
6.37787e-05
6.17602e-05
6.16774e-05
6.1503e-05
6.13081e-05
6.11975e-05
6.12549e-05
6.14424e-05
6.15757e-05
6.14748e-05
6.11829e-05
6.09877e-05
6.11755e-05
6.17061e-05
6.21408e-05
6.20457e-05
6.14167e-05
6.06558e-05
6.02991e-05
6.06498e-05
6.14811e-05
6.22069e-05
6.23914e-05
6.20229e-05
6.1406e-05
6.08977e-05
6.0708e-05
6.08504e-05
6.11832e-05
6.15034e-05
6.17073e-05
5.97704e-05
5.96917e-05
5.95268e-05
5.93434e-05
5.92397e-05
5.92935e-05
5.94688e-05
5.95925e-05
5.94975e-05
5.92253e-05
5.9045e-05
5.92228e-05
5.97196e-05
6.01241e-05
6.00306e-05
5.94381e-05
5.87259e-05
5.83951e-05
5.87269e-05
5.95082e-05
6.019e-05
6.03623e-05
6.00138e-05
5.94324e-05
5.89545e-05
5.87768e-05
5.89114e-05
5.92254e-05
5.95278e-05
5.97205e-05
5.78612e-05
5.77868e-05
5.76314e-05
5.74588e-05
5.73614e-05
5.74114e-05
5.75748e-05
5.769e-05
5.76011e-05
5.73476e-05
5.71807e-05
5.73481e-05
5.78124e-05
5.81891e-05
5.80989e-05
5.75422e-05
5.68758e-05
5.65681e-05
5.68801e-05
5.76131e-05
5.82537e-05
5.84158e-05
5.80877e-05
5.75407e-05
5.70914e-05
5.69241e-05
5.70504e-05
5.7346e-05
5.76315e-05
5.78139e-05
5.60282e-05
5.59584e-05
5.58121e-05
5.56499e-05
5.55581e-05
5.56042e-05
5.57563e-05
5.58637e-05
5.57811e-05
5.55454e-05
5.53905e-05
5.55471e-05
5.59802e-05
5.63315e-05
5.6246e-05
5.57243e-05
5.51011e-05
5.48138e-05
5.51054e-05
5.57918e-05
5.63938e-05
5.65475e-05
5.62402e-05
5.57263e-05
5.53037e-05
5.51456e-05
5.52633e-05
5.55409e-05
5.58102e-05
5.5983e-05
5.42676e-05
5.42024e-05
5.4065e-05
5.39126e-05
5.38259e-05
5.3868e-05
5.40092e-05
5.41096e-05
5.40334e-05
5.38145e-05
5.36705e-05
5.3816e-05
5.42194e-05
5.45473e-05
5.44675e-05
5.398e-05
5.33975e-05
5.31281e-05
5.33991e-05
5.40405e-05
5.46064e-05
5.47534e-05
5.44668e-05
5.39848e-05
5.35872e-05
5.34371e-05
5.35461e-05
5.38062e-05
5.40601e-05
5.42239e-05
5.25753e-05
5.25149e-05
5.23862e-05
5.2243e-05
5.2161e-05
5.2199e-05
5.23299e-05
5.24238e-05
5.2354e-05
5.21511e-05
5.20169e-05
5.21512e-05
5.25263e-05
5.28326e-05
5.27595e-05
5.23051e-05
5.17608e-05
5.15075e-05
5.17576e-05
5.2356e-05
5.28878e-05
5.30295e-05
5.27636e-05
5.23122e-05
5.19381e-05
5.17951e-05
5.18951e-05
5.21382e-05
5.23774e-05
5.25329e-05
5.0948e-05
5.08923e-05
5.07721e-05
5.06377e-05
5.05599e-05
5.05938e-05
5.07149e-05
5.08029e-05
5.07395e-05
5.05517e-05
5.04263e-05
5.05495e-05
5.08976e-05
5.11841e-05
5.11183e-05
5.06959e-05
5.01876e-05
4.99483e-05
5.01778e-05
5.07349e-05
5.12348e-05
5.13723e-05
5.11268e-05
5.07048e-05
5.03528e-05
5.02158e-05
5.03069e-05
5.05337e-05
5.07588e-05
5.09065e-05
4.93824e-05
4.93314e-05
4.92193e-05
4.90932e-05
4.90193e-05
4.90491e-05
4.91609e-05
4.92436e-05
4.91864e-05
4.90129e-05
4.88954e-05
4.90077e-05
4.93302e-05
4.95984e-05
4.95403e-05
4.91487e-05
4.86742e-05
4.84476e-05
4.86567e-05
4.91743e-05
4.96442e-05
4.97783e-05
4.95529e-05
4.9159e-05
4.88278e-05
4.86963e-05
4.87784e-05
4.89894e-05
4.92012e-05
4.93414e-05
4.78752e-05
4.7829e-05
4.77247e-05
4.76066e-05
4.75362e-05
4.75621e-05
4.7665e-05
4.77427e-05
4.76916e-05
4.75315e-05
4.74213e-05
4.75229e-05
4.7821e-05
4.80724e-05
4.80222e-05
4.76603e-05
4.72176e-05
4.70022e-05
4.71914e-05
4.76714e-05
4.81129e-05
4.82444e-05
4.80387e-05
4.76718e-05
4.736e-05
4.72333e-05
4.73066e-05
4.75024e-05
4.77014e-05
4.78347e-05
4.64238e-05
4.63821e-05
4.62854e-05
4.61748e-05
4.61077e-05
4.61297e-05
4.62244e-05
4.62974e-05
4.62521e-05
4.61047e-05
4.60011e-05
4.60923e-05
4.63675e-05
4.66032e-05
4.65611e-05
4.62275e-05
4.58148e-05
4.56095e-05
4.57793e-05
4.62234e-05
4.66382e-05
4.67677e-05
4.65811e-05
4.62399e-05
4.59465e-05
4.5824e-05
4.58887e-05
4.607e-05
4.62568e-05
4.63835e-05
4.50254e-05
4.49882e-05
4.48988e-05
4.47952e-05
4.47311e-05
4.47495e-05
4.48362e-05
4.4905e-05
4.48653e-05
4.47298e-05
4.46322e-05
4.47135e-05
4.4967e-05
4.51881e-05
4.5154e-05
4.48475e-05
4.4463e-05
4.42668e-05
4.4418e-05
4.48279e-05
4.52174e-05
4.53453e-05
4.51772e-05
4.48606e-05
4.45846e-05
4.44659e-05
4.45222e-05
4.46895e-05
4.48647e-05
4.49852e-05
4.36774e-05
4.36446e-05
4.35621e-05
4.34653e-05
4.34041e-05
4.34189e-05
4.34982e-05
4.35629e-05
4.35285e-05
4.34042e-05
4.33122e-05
4.3384e-05
4.3617e-05
4.38245e-05
4.37983e-05
4.35176e-05
4.31596e-05
4.29718e-05
4.3105e-05
4.34825e-05
4.38481e-05
4.39746e-05
4.38244e-05
4.35312e-05
4.32716e-05
4.31565e-05
4.32047e-05
4.33586e-05
4.35226e-05
4.36373e-05
4.23774e-05
4.23489e-05
4.2273e-05
4.21827e-05
4.21241e-05
4.21356e-05
4.22078e-05
4.22688e-05
4.22394e-05
4.21257e-05
4.20388e-05
4.21016e-05
4.23152e-05
4.25101e-05
4.24915e-05
4.22352e-05
4.19023e-05
4.17222e-05
4.18383e-05
4.2185e-05
4.2528e-05
4.26533e-05
4.25201e-05
4.22492e-05
4.20052e-05
4.18933e-05
4.19338e-05
4.20749e-05
4.22283e-05
4.23373e-05
4.11233e-05
4.10988e-05
4.10293e-05
4.09451e-05
4.08891e-05
4.08975e-05
4.0963e-05
4.10204e-05
4.09956e-05
4.08918e-05
4.08098e-05
4.08641e-05
4.10595e-05
4.12424e-05
4.12312e-05
4.09981e-05
4.06887e-05
4.05159e-05
4.06158e-05
4.09333e-05
4.12547e-05
4.13789e-05
4.1262e-05
4.10124e-05
4.07832e-05
4.06743e-05
4.07074e-05
4.08363e-05
4.09796e-05
4.10832e-05
3.9913e-05
3.98923e-05
3.98289e-05
3.97505e-05
3.96969e-05
3.97024e-05
3.97616e-05
3.98156e-05
3.97952e-05
3.97007e-05
3.96232e-05
3.96695e-05
3.98478e-05
4.00195e-05
4.00151e-05
3.98039e-05
3.95169e-05
3.93508e-05
3.94355e-05
3.97255e-05
4.00264e-05
4.01494e-05
4.00479e-05
3.98185e-05
3.96034e-05
3.94974e-05
3.95234e-05
3.96407e-05
3.97743e-05
3.98728e-05
3.87443e-05
3.87274e-05
3.86697e-05
3.85968e-05
3.85456e-05
3.85483e-05
3.86017e-05
3.86525e-05
3.86361e-05
3.85502e-05
3.8477e-05
3.8516e-05
3.86782e-05
3.88392e-05
3.88412e-05
3.86508e-05
3.83848e-05
3.82252e-05
3.82955e-05
3.85595e-05
3.88409e-05
3.89626e-05
3.88757e-05
3.86656e-05
3.84638e-05
3.83607e-05
3.83801e-05
3.84864e-05
3.86107e-05
3.87042e-05
3.76156e-05
3.76021e-05
3.75499e-05
3.74823e-05
3.74333e-05
3.74336e-05
3.74815e-05
3.75291e-05
3.75164e-05
3.74386e-05
3.73696e-05
3.74016e-05
3.75488e-05
3.76997e-05
3.77077e-05
3.75366e-05
3.72906e-05
3.71372e-05
3.71942e-05
3.74337e-05
3.76964e-05
3.78166e-05
3.77435e-05
3.75516e-05
3.73627e-05
3.72623e-05
3.72755e-05
3.73714e-05
3.74869e-05
3.75756e-05
3.6525e-05
3.65148e-05
3.64678e-05
3.64052e-05
3.63584e-05
3.63564e-05
3.63991e-05
3.64437e-05
3.64343e-05
3.63642e-05
3.62991e-05
3.63248e-05
3.64579e-05
3.65992e-05
3.66125e-05
3.64597e-05
3.62325e-05
3.60852e-05
3.61299e-05
3.63462e-05
3.65911e-05
3.67098e-05
3.66494e-05
3.64749e-05
3.62982e-05
3.62006e-05
3.62081e-05
3.6294e-05
3.64011e-05
3.64851e-05
3.54708e-05
3.54637e-05
3.54216e-05
3.53637e-05
3.53192e-05
3.53151e-05
3.53529e-05
3.53946e-05
3.53883e-05
3.53252e-05
3.52639e-05
3.52839e-05
3.54038e-05
3.55359e-05
3.55541e-05
3.54184e-05
3.5209e-05
3.50676e-05
3.51009e-05
3.52956e-05
3.55235e-05
3.56402e-05
3.55918e-05
3.54337e-05
3.52687e-05
3.51739e-05
3.51761e-05
3.52527e-05
3.53516e-05
3.54311e-05
3.44515e-05
3.44473e-05
3.44097e-05
3.43565e-05
3.4314e-05
3.43081e-05
3.43414e-05
3.43803e-05
3.43767e-05
3.43202e-05
3.42626e-05
3.42774e-05
3.4385e-05
3.45083e-05
3.45307e-05
3.44109e-05
3.42184e-05
3.4083e-05
3.41058e-05
3.42802e-05
3.44918e-05
3.46063e-05
3.4569e-05
3.44264e-05
3.42726e-05
3.41808e-05
3.4178e-05
3.42458e-05
3.43371e-05
3.44122e-05
3.34656e-05
3.3464e-05
3.34308e-05
3.33819e-05
3.33416e-05
3.33341e-05
3.33632e-05
3.33993e-05
3.3398e-05
3.33477e-05
3.32937e-05
3.33038e-05
3.34e-05
3.35147e-05
3.35409e-05
3.3436e-05
3.32594e-05
3.31298e-05
3.31432e-05
3.32987e-05
3.34946e-05
3.36067e-05
3.35795e-05
3.34516e-05
3.33086e-05
3.32196e-05
3.32124e-05
3.3272e-05
3.33559e-05
3.34267e-05
3.25117e-05
3.25125e-05
3.24834e-05
3.24386e-05
3.24004e-05
3.23915e-05
3.24167e-05
3.24501e-05
3.24509e-05
3.24064e-05
3.23558e-05
3.23617e-05
3.24472e-05
3.25539e-05
3.25832e-05
3.2492e-05
3.23306e-05
3.22068e-05
3.22118e-05
3.23495e-05
3.25305e-05
3.26398e-05
3.26219e-05
3.25078e-05
3.23752e-05
3.22892e-05
3.2278e-05
3.23299e-05
3.24067e-05
3.24733e-05
3.15885e-05
3.15915e-05
3.15662e-05
3.15253e-05
3.14892e-05
3.1479e-05
3.15006e-05
3.15315e-05
3.15341e-05
3.14948e-05
3.14476e-05
3.14498e-05
3.15255e-05
3.16244e-05
3.16563e-05
3.15778e-05
3.14307e-05
3.13127e-05
3.13101e-05
3.14313e-05
3.1598e-05
3.17043e-05
3.16948e-05
3.15937e-05
3.14711e-05
3.13882e-05
3.13734e-05
3.1418e-05
3.14882e-05
3.15507e-05
3.06947e-05
3.06996e-05
3.06779e-05
3.06408e-05
3.06067e-05
3.05955e-05
3.06137e-05
3.06421e-05
3.06463e-05
3.06119e-05
3.05679e-05
3.0567e-05
3.06335e-05
3.07249e-05
3.07589e-05
3.0692e-05
3.05585e-05
3.04464e-05
3.0437e-05
3.05429e-05
3.0696e-05
3.07989e-05
3.07969e-05
3.0708e-05
3.0595e-05
3.05153e-05
3.04974e-05
3.05353e-05
3.05991e-05
3.06576e-05
2.9829e-05
2.98357e-05
2.98174e-05
2.97838e-05
2.97517e-05
2.97397e-05
2.97549e-05
2.97808e-05
2.97862e-05
2.97563e-05
2.97156e-05
2.97119e-05
2.977e-05
2.98542e-05
2.98897e-05
2.98335e-05
2.97128e-05
2.96065e-05
2.95914e-05
2.96831e-05
2.98231e-05
2.99224e-05
2.99272e-05
2.98496e-05
2.97459e-05
2.96695e-05
2.96488e-05
2.96805e-05
2.97382e-05
2.97927e-05
2.89904e-05
2.89987e-05
2.89834e-05
2.89532e-05
2.89231e-05
2.89105e-05
2.89229e-05
2.89464e-05
2.89529e-05
2.89271e-05
2.88895e-05
2.88834e-05
2.89338e-05
2.90111e-05
2.90477e-05
2.90012e-05
2.88925e-05
2.87922e-05
2.8772e-05
2.88506e-05
2.89782e-05
2.90736e-05
2.90843e-05
2.90174e-05
2.89225e-05
2.88495e-05
2.88265e-05
2.88524e-05
2.89044e-05
2.89551e-05
2.81778e-05
2.81874e-05
2.8175e-05
2.81479e-05
2.81199e-05
2.81069e-05
2.81166e-05
2.81379e-05
2.81451e-05
2.81231e-05
2.80885e-05
2.80805e-05
2.81239e-05
2.81945e-05
2.82317e-05
2.81941e-05
2.80967e-05
2.80023e-05
2.79779e-05
2.80445e-05
2.81602e-05
2.82514e-05
2.82673e-05
2.82103e-05
2.81239e-05
2.80543e-05
2.80294e-05
2.805e-05
2.80965e-05
2.81435e-05
2.73902e-05
2.74009e-05
2.73911e-05
2.73671e-05
2.73409e-05
2.73277e-05
2.73351e-05
2.73542e-05
2.7362e-05
2.73434e-05
2.73118e-05
2.73022e-05
2.73391e-05
2.74034e-05
2.74408e-05
2.7411e-05
2.73243e-05
2.72358e-05
2.7208e-05
2.72635e-05
2.7368e-05
2.74549e-05
2.74752e-05
2.74273e-05
2.7349e-05
2.7283e-05
2.72566e-05
2.72723e-05
2.73137e-05
2.7357e-05
2.66265e-05
2.66382e-05
2.66308e-05
2.66096e-05
2.65854e-05
2.6572e-05
2.65773e-05
2.65943e-05
2.66025e-05
2.6587e-05
2.65582e-05
2.65474e-05
2.65784e-05
2.66367e-05
2.66739e-05
2.66512e-05
2.65745e-05
2.64918e-05
2.64612e-05
2.65068e-05
2.66005e-05
2.66829e-05
2.67069e-05
2.66674e-05
2.65969e-05
2.65346e-05
2.6507e-05
2.65183e-05
2.65547e-05
2.65946e-05
2.58859e-05
2.58983e-05
2.58931e-05
2.58746e-05
2.58523e-05
2.58389e-05
2.58424e-05
2.58574e-05
2.58657e-05
2.5853e-05
2.58269e-05
2.58153e-05
2.5841e-05
2.58935e-05
2.59301e-05
2.59137e-05
2.58463e-05
2.57695e-05
2.57368e-05
2.57733e-05
2.58569e-05
2.59346e-05
2.59616e-05
2.59298e-05
2.58667e-05
2.58081e-05
2.57797e-05
2.5787e-05
2.58189e-05
2.58553e-05
2.51674e-05
2.51804e-05
2.51772e-05
2.51612e-05
2.51407e-05
2.51275e-05
2.51293e-05
2.51424e-05
2.51508e-05
2.51405e-05
2.51171e-05
2.51049e-05
2.51259e-05
2.51729e-05
2.52085e-05
2.51977e-05
2.5139e-05
2.5068e-05
2.50338e-05
2.50621e-05
2.51362e-05
2.5209e-05
2.52384e-05
2.52137e-05
2.51576e-05
2.51028e-05
2.50739e-05
2.50775e-05
2.51051e-05
2.51382e-05
2.44703e-05
2.44837e-05
2.44822e-05
2.44685e-05
2.44499e-05
2.44369e-05
2.44373e-05
2.44486e-05
2.44569e-05
2.44488e-05
2.44279e-05
2.44153e-05
2.44321e-05
2.4474e-05
2.45084e-05
2.45024e-05
2.44517e-05
2.43864e-05
2.43513e-05
2.43723e-05
2.44374e-05
2.45054e-05
2.45365e-05
2.45181e-05
2.44688e-05
2.44177e-05
2.43886e-05
2.43891e-05
2.44127e-05
2.44425e-05
2.37936e-05
2.38073e-05
2.38074e-05
2.37959e-05
2.37791e-05
2.37664e-05
2.37656e-05
2.37752e-05
2.37832e-05
2.37771e-05
2.37585e-05
2.37459e-05
2.37589e-05
2.37959e-05
2.38289e-05
2.3827e-05
2.37837e-05
2.3724e-05
2.36886e-05
2.37031e-05
2.37598e-05
2.38228e-05
2.38551e-05
2.38424e-05
2.37994e-05
2.37521e-05
2.37232e-05
2.37208e-05
2.37407e-05
2.37674e-05
2.31367e-05
2.31505e-05
2.3152e-05
2.31425e-05
2.31274e-05
2.31152e-05
2.31133e-05
2.31213e-05
2.3129e-05
2.31245e-05
2.31082e-05
2.30957e-05
2.31055e-05
2.31379e-05
2.31692e-05
2.31708e-05
2.31343e-05
2.30801e-05
2.30448e-05
2.30536e-05
2.31025e-05
2.31605e-05
2.31934e-05
2.31858e-05
2.31488e-05
2.31053e-05
2.30768e-05
2.30719e-05
2.30883e-05
2.31121e-05
2.24989e-05
2.25126e-05
2.25153e-05
2.25076e-05
2.24942e-05
2.24826e-05
2.24798e-05
2.24863e-05
2.24935e-05
2.24905e-05
2.24763e-05
2.24641e-05
2.2471e-05
2.24992e-05
2.25286e-05
2.25331e-05
2.25028e-05
2.2454e-05
2.24192e-05
2.24231e-05
2.24647e-05
2.25178e-05
2.25508e-05
2.25476e-05
2.25162e-05
2.24765e-05
2.24486e-05
2.24417e-05
2.24549e-05
2.24758e-05
2.18793e-05
2.18929e-05
2.18965e-05
2.18906e-05
2.18787e-05
2.18678e-05
2.18643e-05
2.18695e-05
2.18762e-05
2.18743e-05
2.18621e-05
2.18504e-05
2.18548e-05
2.1879e-05
2.19065e-05
2.19133e-05
2.18886e-05
2.18449e-05
2.18111e-05
2.18108e-05
2.18457e-05
2.18939e-05
2.19266e-05
2.19273e-05
2.19011e-05
2.18651e-05
2.18381e-05
2.18294e-05
2.18397e-05
2.18579e-05
2.12774e-05
2.12906e-05
2.12952e-05
2.12907e-05
2.12804e-05
2.12702e-05
2.12661e-05
2.12701e-05
2.12762e-05
2.12754e-05
2.12649e-05
2.12538e-05
2.12562e-05
2.12768e-05
2.13022e-05
2.13108e-05
2.12911e-05
2.12524e-05
2.12198e-05
2.1216e-05
2.12448e-05
2.12881e-05
2.13202e-05
2.13241e-05
2.13027e-05
2.12704e-05
2.12445e-05
2.12344e-05
2.12421e-05
2.12576e-05
2.06924e-05
2.07053e-05
2.07105e-05
2.07075e-05
2.06986e-05
2.06891e-05
2.06847e-05
2.06875e-05
2.0693e-05
2.0693e-05
2.06842e-05
2.06738e-05
2.06744e-05
2.06917e-05
2.07149e-05
2.07249e-05
2.07098e-05
2.06758e-05
2.06447e-05
2.0638e-05
2.06612e-05
2.06998e-05
2.07308e-05
2.07376e-05
2.07205e-05
2.06917e-05
2.06672e-05
2.0656e-05
2.06613e-05
2.06744e-05
2.01239e-05
2.01362e-05
2.0142e-05
2.01402e-05
2.01327e-05
2.0124e-05
2.01193e-05
2.01211e-05
2.01259e-05
2.01266e-05
2.01193e-05
2.01097e-05
2.01089e-05
2.01232e-05
2.01442e-05
2.01551e-05
2.0144e-05
2.01144e-05
2.00852e-05
2.00762e-05
2.00943e-05
2.01284e-05
2.01581e-05
2.0167e-05
2.0154e-05
2.01287e-05
2.01056e-05
2.00935e-05
2.00967e-05
2.01075e-05
1.95711e-05
1.95829e-05
1.95891e-05
1.95884e-05
1.95821e-05
1.95742e-05
1.95694e-05
1.95703e-05
1.95745e-05
1.95756e-05
1.95697e-05
1.95609e-05
1.95591e-05
1.95706e-05
1.95895e-05
1.96009e-05
1.95932e-05
1.95679e-05
1.95406e-05
1.95298e-05
1.95435e-05
1.95732e-05
1.96013e-05
1.96119e-05
1.96025e-05
1.95805e-05
1.9559e-05
1.95465e-05
1.95477e-05
1.95565e-05
1.90336e-05
1.90447e-05
1.90511e-05
1.90514e-05
1.90464e-05
1.90393e-05
1.90344e-05
1.90346e-05
1.90381e-05
1.90395e-05
1.90349e-05
1.90269e-05
1.90243e-05
1.90333e-05
1.90501e-05
1.90618e-05
1.9057e-05
1.90356e-05
1.90105e-05
1.89984e-05
1.90081e-05
1.90337e-05
1.90599e-05
1.90719e-05
1.90657e-05
1.90469e-05
1.9027e-05
1.90142e-05
1.90138e-05
1.90206e-05
1.85108e-05
1.85212e-05
1.85277e-05
1.85288e-05
1.85249e-05
1.85186e-05
1.85138e-05
1.85133e-05
1.85162e-05
1.85178e-05
1.85142e-05
1.85071e-05
1.85039e-05
1.85109e-05
1.85255e-05
1.85371e-05
1.85349e-05
1.85171e-05
1.84942e-05
1.84813e-05
1.84875e-05
1.85092e-05
1.85334e-05
1.85463e-05
1.85429e-05
1.85271e-05
1.8509e-05
1.84961e-05
1.84944e-05
1.84994e-05
1.80022e-05
1.80118e-05
1.80183e-05
1.80201e-05
1.80172e-05
1.80117e-05
1.80071e-05
1.80061e-05
1.80084e-05
1.801e-05
1.80074e-05
1.80011e-05
1.79975e-05
1.80026e-05
1.80153e-05
1.80266e-05
1.80264e-05
1.8012e-05
1.79914e-05
1.7978e-05
1.79812e-05
1.79992e-05
1.80214e-05
1.80347e-05
1.80338e-05
1.80208e-05
1.80045e-05
1.79918e-05
1.7989e-05
1.79923e-05
1.75073e-05
1.7516e-05
1.75224e-05
1.75247e-05
1.75227e-05
1.75181e-05
1.75137e-05
1.75123e-05
1.7514e-05
1.75157e-05
1.75138e-05
1.75084e-05
1.75046e-05
1.75081e-05
1.75189e-05
1.75296e-05
1.75311e-05
1.75197e-05
1.75014e-05
1.7488e-05
1.74887e-05
1.75033e-05
1.75232e-05
1.75368e-05
1.75379e-05
1.75275e-05
1.75131e-05
1.75007e-05
1.74969e-05
1.74988e-05
1.70255e-05
1.70334e-05
1.70396e-05
1.70424e-05
1.70412e-05
1.70373e-05
1.70332e-05
1.70315e-05
1.70326e-05
1.70343e-05
1.7033e-05
1.70284e-05
1.70246e-05
1.70267e-05
1.70357e-05
1.70458e-05
1.70486e-05
1.70399e-05
1.70239e-05
1.70107e-05
1.70093e-05
1.70208e-05
1.70386e-05
1.7052e-05
1.70548e-05
1.70468e-05
1.70342e-05
1.70224e-05
1.70179e-05
1.70184e-05
1.65565e-05
1.65635e-05
1.65695e-05
1.65725e-05
1.65721e-05
1.65689e-05
1.65651e-05
1.65632e-05
1.65639e-05
1.65654e-05
1.65647e-05
1.65609e-05
1.65571e-05
1.65581e-05
1.65655e-05
1.65747e-05
1.65785e-05
1.65722e-05
1.65584e-05
1.65457e-05
1.65426e-05
1.65514e-05
1.65669e-05
1.65799e-05
1.65841e-05
1.65783e-05
1.65674e-05
1.65563e-05
1.65513e-05
1.65507e-05
1.60998e-05
1.61059e-05
1.61115e-05
1.61148e-05
1.6115e-05
1.61125e-05
1.61091e-05
1.6107e-05
1.61073e-05
1.61086e-05
1.61083e-05
1.61052e-05
1.61016e-05
1.61017e-05
1.61076e-05
1.6116e-05
1.61204e-05
1.61161e-05
1.61045e-05
1.60925e-05
1.60882e-05
1.60944e-05
1.61078e-05
1.61201e-05
1.61254e-05
1.61215e-05
1.61124e-05
1.6102e-05
1.60967e-05
1.60952e-05
1.56549e-05
1.56602e-05
1.56654e-05
1.56688e-05
1.56695e-05
1.56676e-05
1.56647e-05
1.56625e-05
1.56624e-05
1.56635e-05
1.56635e-05
1.56611e-05
1.56577e-05
1.56572e-05
1.56617e-05
1.56692e-05
1.5674e-05
1.56715e-05
1.56618e-05
1.56507e-05
1.56455e-05
1.56495e-05
1.56608e-05
1.56723e-05
1.56784e-05
1.56762e-05
1.56687e-05
1.56592e-05
1.56538e-05
1.56515e-05
1.52215e-05
1.52259e-05
1.52307e-05
1.52341e-05
1.52352e-05
1.5234e-05
1.52314e-05
1.52293e-05
1.52289e-05
1.52298e-05
1.523e-05
1.52281e-05
1.52251e-05
1.5224e-05
1.52274e-05
1.52338e-05
1.52389e-05
1.52378e-05
1.523e-05
1.52199e-05
1.52141e-05
1.52163e-05
1.52255e-05
1.52361e-05
1.52426e-05
1.52419e-05
1.5236e-05
1.52274e-05
1.5222e-05
1.52191e-05
1.47992e-05
1.48028e-05
1.48071e-05
1.48104e-05
1.48119e-05
1.48111e-05
1.4809e-05
1.4807e-05
1.48063e-05
1.4807e-05
1.48074e-05
1.4806e-05
1.48033e-05
1.48018e-05
1.48042e-05
1.48097e-05
1.48147e-05
1.48148e-05
1.48087e-05
1.47997e-05
1.47935e-05
1.47942e-05
1.48016e-05
1.48111e-05
1.48179e-05
1.48183e-05
1.48139e-05
1.48063e-05
1.4801e-05
1.47976e-05
1.43875e-05
1.43903e-05
1.43941e-05
1.43974e-05
1.4399e-05
1.43988e-05
1.4397e-05
1.43951e-05
1.43943e-05
1.43947e-05
1.43952e-05
1.43943e-05
1.43919e-05
1.43903e-05
1.43917e-05
1.43963e-05
1.44011e-05
1.44021e-05
1.43976e-05
1.43898e-05
1.43835e-05
1.43828e-05
1.43885e-05
1.43969e-05
1.44037e-05
1.44051e-05
1.4402e-05
1.43955e-05
1.43904e-05
1.43867e-05
1.39861e-05
1.39882e-05
1.39915e-05
1.39946e-05
1.39964e-05
1.39965e-05
1.39952e-05
1.39935e-05
1.39925e-05
1.39928e-05
1.39932e-05
1.39926e-05
1.39907e-05
1.39889e-05
1.39896e-05
1.39933e-05
1.39978e-05