/*--------------------------------*- C++ -*----------------------------------*\
| =========                 |                                                 |
| \\      /  F ield         | OpenFOAM: The Open Source CFD Toolbox           |
|  \\    /   O peration     | Version:  v1912                                 |
|   \\  /    A nd           | Website:  www.openfoam.com                      |
|    \\/     M anipulation  |                                                 |
\*---------------------------------------------------------------------------*/
FoamFile
{
    version     2.0;
    format      ascii;
    class       volScalarField;
    location    "31187";
    object      k;
}
// * * * * * * * * * * * * * * * * * * * * * * * * * * * * * * * * * * * * * //

dimensions      [0 2 -2 0 0 0 0];


internalField   nonuniform List<scalar> 
9000
(
3.53812e-06
3.55174e-06
3.53458e-06
3.49122e-06
3.44058e-06
3.41687e-06
3.44456e-06
3.50455e-06
3.53495e-06
3.48712e-06
3.3897e-06
3.34103e-06
3.41643e-06
3.57776e-06
3.69449e-06
3.65988e-06
3.47813e-06
3.27186e-06
3.19795e-06
3.30943e-06
3.51755e-06
3.68244e-06
3.71481e-06
3.61946e-06
3.47203e-06
3.35682e-06
3.31911e-06
3.35645e-06
3.42729e-06
3.49377e-06
3.07194e-05
3.07996e-05
3.07098e-05
3.04729e-05
3.01904e-05
3.00524e-05
3.02002e-05
3.05328e-05
3.07088e-05
3.04537e-05
2.99116e-05
2.96255e-05
3.00312e-05
3.09221e-05
3.15764e-05
3.14102e-05
3.0424e-05
2.92624e-05
2.88176e-05
2.94245e-05
3.05811e-05
3.15003e-05
3.16966e-05
3.11907e-05
3.03808e-05
2.97306e-05
2.95064e-05
2.97063e-05
3.0099e-05
3.04699e-05
6.72786e-05
6.744e-05
6.72635e-05
6.67938e-05
6.62311e-05
6.59537e-05
6.62455e-05
6.69072e-05
6.72602e-05
6.6757e-05
6.56773e-05
6.51011e-05
6.5904e-05
6.76748e-05
6.89774e-05
6.86574e-05
6.67057e-05
6.43857e-05
6.34845e-05
6.46901e-05
6.69938e-05
6.88225e-05
6.92191e-05
6.82235e-05
6.66162e-05
6.53173e-05
6.48646e-05
6.526e-05
6.60418e-05
6.67809e-05
0.000105658
0.000105891
0.000105638
0.000104962
0.00010415
0.000103749
0.000104169
0.000105123
0.000105633
0.00010491
0.000103352
0.000102516
0.000103673
0.000106225
0.0001081
0.000107645
0.00010484
0.000101486
0.000100174
0.000101915
0.000105242
0.000107875
0.000108449
0.000107022
0.00010471
0.000102833
0.000102175
0.000102744
0.000103873
0.00010494
0.000140325
0.00014061
0.000140299
0.000139469
0.000138473
0.00013798
0.000138498
0.000139669
0.000140293
0.000139403
0.000137489
0.000136464
0.00013789
0.000141024
0.000143317
0.000142755
0.000139313
0.000135192
0.00013358
0.000135729
0.000139818
0.000143043
0.000143741
0.000141992
0.000139156
0.000136852
0.000136045
0.000136747
0.000138134
0.000139444
0.000169596
0.000169917
0.000169562
0.000168619
0.00016749
0.000166935
0.000167526
0.000168855
0.000169556
0.00016854
0.000166369
0.000165214
0.000166843
0.0001704
0.000172988
0.000172334
0.000168425
0.000163754
0.000161935
0.000164391
0.000169035
0.000172682
0.000173459
0.000171471
0.000168256
0.000165647
0.000164737
0.000165539
0.000167115
0.000168599
0.000193893
0.00019424
0.000193848
0.000192818
0.000191589
0.00019099
0.000191641
0.000193088
0.000193844
0.000192727
0.00019036
0.000189115
0.000190907
0.000194786
0.000197589
0.000196854
0.000192583
0.000187498
0.000185536
0.000188235
0.000193303
0.000197264
0.000198093
0.000195914
0.000192411
0.000189574
0.000188592
0.000189473
0.000191193
0.00019281
0.000214131
0.000214495
0.000214073
0.000212972
0.000211663
0.000211032
0.000211732
0.000213275
0.000214069
0.000212866
0.000210344
0.000209032
0.000210963
0.000215103
0.000218071
0.000217259
0.000212689
0.000207277
0.000205213
0.000208116
0.000213526
0.000217735
0.000218596
0.00021626
0.000212523
0.000209507
0.000208471
0.000209419
0.000211256
0.000212979
0.000231151
0.000231529
0.000231079
0.000229917
0.000228542
0.000227886
0.000228632
0.000230253
0.000231075
0.000229795
0.000227144
0.000225785
0.000227839
0.000232197
0.000235297
0.000234409
0.000229584
0.000223903
0.000221763
0.000224845
0.000230543
0.000234955
0.000235837
0.000233362
0.000229429
0.000226265
0.000225188
0.000226195
0.000228131
0.000229943
0.000245621
0.00024601
0.000245534
0.000244319
0.000242888
0.000242213
0.000242999
0.000244687
0.000245528
0.00024418
0.000241419
0.000240025
0.00024219
0.000246736
0.000249943
0.00024898
0.000243931
0.000238023
0.000235829
0.000239071
0.000245017
0.0002496
0.000250493
0.000247895
0.000243793
0.000240504
0.000239395
0.000240454
0.000242476
0.000244364
0.000258047
0.000258445
0.000257946
0.000256683
0.000255204
0.000254515
0.000255337
0.000257081
0.000257936
0.000256525
0.000253672
0.000252253
0.000254521
0.00025923
0.000262522
0.000261486
0.000256237
0.000250138
0.000247904
0.000251291
0.000257454
0.000262182
0.000263081
0.00026037
0.00025612
0.000252726
0.000251591
0.000252697
0.000254795
0.00025675
0.000268816
0.000269219
0.000268699
0.000267393
0.000265873
0.000265174
0.000266028
0.000267821
0.000268684
0.000267216
0.000264284
0.00026285
0.00026521
0.00027006
0.00027342
0.000272313
0.000266889
0.000260628
0.000258366
0.000261883
0.000268235
0.000273088
0.000273986
0.000271176
0.000266796
0.000263311
0.000262156
0.000263304
0.000265468
0.000267482
0.000278219
0.000278627
0.000278087
0.000276745
0.00027519
0.000274482
0.000275365
0.000277197
0.000278064
0.000276546
0.00027355
0.000272107
0.00027455
0.000279519
0.000282933
0.000281758
0.000276181
0.000269785
0.000267505
0.000271137
0.000277653
0.000282612
0.000283507
0.000280607
0.000276115
0.000272552
0.00027138
0.000272566
0.000274787
0.000276853
0.000286483
0.000286896
0.000286338
0.000284964
0.00028338
0.000282667
0.000283574
0.000285437
0.000286306
0.000284744
0.000281695
0.00028025
0.000282765
0.000287834
0.000291289
0.000290051
0.000284344
0.000277837
0.000275546
0.000279276
0.000285932
0.00029098
0.00029187
0.000288893
0.000284305
0.000280677
0.000279491
0.000280708
0.000282979
0.000285089
0.000293787
0.000294204
0.000293631
0.00029223
0.000290622
0.000289905
0.000290832
0.000292719
0.000293586
0.000291989
0.0002889
0.000287456
0.000290031
0.000295182
0.000298667
0.000297372
0.000291557
0.000284962
0.000282665
0.000286477
0.000293248
0.00029837
0.000299256
0.000296214
0.000291547
0.000287864
0.000286665
0.000287908
0.000290221
0.000292369
0.000300273
0.000300693
0.000300108
0.000298685
0.000297059
0.000296339
0.00029728
0.000299185
0.000300048
0.000298423
0.000295306
0.000293866
0.00029649
0.000301703
0.000305207
0.000303864
0.000297964
0.000291305
0.000289004
0.000292878
0.000299741
0.000304925
0.000305808
0.000302713
0.000297983
0.000294255
0.000293045
0.000294306
0.000296653
0.000298834
0.000306053
0.000306478
0.000305883
0.000304444
0.000302804
0.000302081
0.000303032
0.000304947
0.000305806
0.000304161
0.000301027
0.000299593
0.000302253
0.00030751
0.000311026
0.000309645
0.000303682
0.000296978
0.000294674
0.000298593
0.000305525
0.000310756
0.00031164
0.000308507
0.000303728
0.000299965
0.000298743
0.000300016
0.000302389
0.000304596
0.000311222
0.000311651
0.00031105
0.000309599
0.00030795
0.000307226
0.000308181
0.0003101
0.000310954
0.000309298
0.000306157
0.00030473
0.000307412
0.000312696
0.000316216
0.000314807
0.000308805
0.000302076
0.000299769
0.000303711
0.000310689
0.000315958
0.000316845
0.000313688
0.000308877
0.000305088
0.000303853
0.000305131
0.000307521
0.000309749
0.000315855
0.000316289
0.000315685
0.000314229
0.000312575
0.000311849
0.000312802
0.000314719
0.000315569
0.000313909
0.000310772
0.000309352
0.000312042
0.000317336
0.000320855
0.00031943
0.000313412
0.000306676
0.000304362
0.000308309
0.000315311
0.000320607
0.000321503
0.000318336
0.000313507
0.0003097
0.000308451
0.000309726
0.000312125
0.000314368
0.000320016
0.000320456
0.000319853
0.000318396
0.000316742
0.000316013
0.00031696
0.000318868
0.000319714
0.000318059
0.000314935
0.000313522
0.000316207
0.000321494
0.000325008
0.000323579
0.000317567
0.00031084
0.000308518
0.000312447
0.000319452
0.000324766
0.000325676
0.000322514
0.000317682
0.000313864
0.0003126
0.000313864
0.000316264
0.000318518
0.000323758
0.000324205
0.000323608
0.000322155
0.000320504
0.000319772
0.000320707
0.000322601
0.000323443
0.000321803
0.0003187
0.000317293
0.000319959
0.000325223
0.000328728
0.000327308
0.000321324
0.000314622
0.000312288
0.00031618
0.000323166
0.000328489
0.000329419
0.000326277
0.000321457
0.000317635
0.000316353
0.000317598
0.000319992
0.00032225
0.000327126
0.000327583
0.000326994
0.00032555
0.000323906
0.00032317
0.000324088
0.000325964
0.000326803
0.000325184
0.000322112
0.000320709
0.000323343
0.000328569
0.000332062
0.000330663
0.000324729
0.000318067
0.000315716
0.00031955
0.000326497
0.000331822
0.000332778
0.000329671
0.000324876
0.000321056
0.000319754
0.000320974
0.000323353
0.000325611
0.00033016
0.000330627
0.00033005
0.00032862
0.000326987
0.000326247
0.000327143
0.000328994
0.000329831
0.000328242
0.000325208
0.000323807
0.000326396
0.000331571
0.000335048
0.000333685
0.00032782
0.000321211
0.000318839
0.000322596
0.000329485
0.000334803
0.000335793
0.000332734
0.000327978
0.000324167
0.000322843
0.000324029
0.000326386
0.000328639
0.000332892
0.00033337
0.000332809
0.000331398
0.000329778
0.000329033
0.000329903
0.000331725
0.000332562
0.000331009
0.00032802
0.00032662
0.000329152
0.000334261
0.000337722
0.000336406
0.00033063
0.000324087
0.000321689
0.000325351
0.000332162
0.000337467
0.000338497
0.000335501
0.000330795
0.000326999
0.000325651
0.000326796
0.000329123
0.000331366
0.00033535
0.000335842
0.0003353
0.000333913
0.000332309
0.000331559
0.000332397
0.000334186
0.000335023
0.000333515
0.000330577
0.000329176
0.000331639
0.000336671
0.000340113
0.000338856
0.000333187
0.000326722
0.000324294
0.000327842
0.000334558
0.000339842
0.000340919
0.000337999
0.000333357
0.00032958
0.000328206
0.000329303
0.000331594
0.000333821
0.000337561
0.000338067
0.000337548
0.000336188
0.000334604
0.000333847
0.00033465
0.000336403
0.00033724
0.000335782
0.000332902
0.000331499
0.000333881
0.000338825
0.000342247
0.000341059
0.000335515
0.000329138
0.000326677
0.000330095
0.000336698
0.000341956
0.000343084
0.000340253
0.000335686
0.000331935
0.000330532
0.000331574
0.000333822
0.00033603
0.000339545
0.000340066
0.000339574
0.000338245
0.000336684
0.00033592
0.000336684
0.000338396
0.000339235
0.000337833
0.000335016
0.000333609
0.000335902
0.000340745
0.000344145
0.000343039
0.000337634
0.000331357
0.000328859
0.000332132
0.000338605
0.000343829
0.000345016
0.000342285
0.000337804
0.000334084
0.000332651
0.000333632
0.000335829
0.000338014
0.000341322
0.00034186
0.000341396
0.000340102
0.000338566
0.000337796
0.000338518
0.000340185
0.000341027
0.000339685
0.000336937
0.000335526
0.00033772
0.000342452
0.000345829
0.000344813
0.000339562
0.000333394
0.000330858
0.000333971
0.000340299
0.000345484
0.000346732
0.000344113
0.000339729
0.000336045
0.000334581
0.000335495
0.000337636
0.000339792
0.000342908
0.000343464
0.000343032
0.000341777
0.000340269
0.000339492
0.000340168
0.000341788
0.000342632
0.000341355
0.000338681
0.000337265
0.000339352
0.000343964
0.000347315
0.000346398
0.000341315
0.000335265
0.000332688
0.00033563
0.000341799
0.000346936
0.000348251
0.000345754
0.000341476
0.000337833
0.000336338
0.00033718
0.000339258
0.000341382
0.00034432
0.000344894
0.000344497
0.000343283
0.000341805
0.000341022
0.000341649
0.000343219
0.000344066
0.000342858
0.000340261
0.00033884
0.000340814
0.000345297
0.000348621
0.000347808
0.000342905
0.000336982
0.000334365
0.000337124
0.000343119
0.000348203
0.000349587
0.000347221
0.000343059
0.000339463
0.000337935
0.000338701
0.000340711
0.000342798
0.000345569
0.000346163
0.000345802
0.000344633
0.000343188
0.000342398
0.000342976
0.000344492
0.000345341
0.000344205
0.00034169
0.000340264
0.000342119
0.000346466
0.000349758
0.000349058
0.000344345
0.000338557
0.0003359
0.000338468
0.000344276
0.000349299
0.000350755
0.000348528
0.00034449
0.000340945
0.000339386
0.000340072
0.000342008
0.000344054
0.00034667
0.000347282
0.000346959
0.000345838
0.000344428
0.000343632
0.000344159
0.000345619
0.000346469
0.000345409
0.000342978
0.000341548
0.00034328
0.000347482
0.000350741
0.000350157
0.000345644
0.00034
0.000337304
0.000339672
0.000345282
0.000350237
0.000351766
0.000349685
0.000345779
0.000342292
0.000340701
0.000341303
0.000343162
0.000345163
0.000347631
0.000348262
0.00034798
0.000346908
0.000345535
0.000344735
0.000345208
0.000346611
0.000347462
0.000346477
0.000344135
0.000342703
0.000344308
0.000348359
0.000351581
0.000351117
0.00034681
0.000341318
0.000338586
0.000340749
0.00034615
0.000351029
0.000352631
0.000350702
0.000346936
0.000343511
0.000341891
0.000342407
0.000344183
0.000346135
0.000348463
0.000349113
0.000348872
0.000347852
0.000346518
0.000345714
0.000346135
0.000347478
0.000348327
0.00034742
0.000345169
0.000343736
0.000345212
0.000349106
0.000352287
0.000351946
0.000347853
0.000342519
0.000339754
0.000341708
0.00034689
0.000351686
0.00035336
0.000351588
0.000347968
0.000344611
0.000342963
0.000343391
0.000345081
0.00034698
0.000349175
0.000349844
0.000349644
0.000348678
0.000347386
0.00034658
0.000346946
0.000348227
0.000349074
0.000348246
0.000346088
0.000344657
0.000346001
0.000349734
0.00035287
0.000352651
0.000348778
0.000343609
0.000340817
0.000342559
0.000347514
0.000352218
0.000353962
0.000352351
0.000348884
0.000345598
0.000343926
0.000344265
0.000345864
0.000347708
0.000349775
0.000350461
0.000350304
0.000349393
0.000348144
0.000347337
0.00034765
0.000348868
0.000349711
0.000348961
0.000346899
0.000345471
0.000346685
0.000350251
0.000353338
0.000353242
0.000349592
0.000344595
0.000341779
0.000343309
0.000348029
0.000352633
0.000354445
0.000352997
0.000349687
0.00034648
0.000344786
0.000345035
0.000346542
0.000348325
0.00035027
0.000350972
0.000350858
0.000350004
0.0003488
0.000347994
0.000348254
0.000349406
0.000350244
0.000349571
0.000347607
0.000346186
0.000347269
0.000350665
0.000353698
0.000353723
0.000350299
0.00034548
0.000342648
0.000343967
0.000348444
0.000352941
0.000354816
0.000353533
0.000350386
0.000347262
0.000345549
0.000345709
0.000347121
0.000348841
0.000350667
0.000351384
0.000351312
0.000350515
0.000349358
0.000348555
0.000348763
0.00034985
0.000350679
0.000350083
0.000348217
0.000346807
0.000347762
0.000350984
0.000353957
0.000354101
0.000350905
0.000346269
0.000343427
0.000344538
0.000348768
0.000353149
0.000355082
0.000353964
0.000350983
0.000347948
0.00034622
0.000346292
0.000347607
0.000349261
0.000350971
0.000351701
0.000351672
0.000350933
0.000349825
0.000349026
0.000349183
0.000350204
0.000351023
0.000350501
0.000348735
0.000347339
0.000348168
0.000351215
0.000354123
0.000354381
0.000351413
0.000346966
0.000344122
0.000345028
0.000349008
0.000353264
0.00035525
0.000354296
0.000351485
0.000348543
0.000346805
0.000346791
0.000348006
0.000349591
0.000351189
0.000351931
0.000351943
0.000351263
0.000350204
0.000349412
0.00034952
0.000350474
0.00035128
0.000350831
0.000349165
0.000347786
0.000348492
0.000351363
0.000354201
0.000354569
0.000351828
0.000347574
0.000344736
0.000345442
0.000349169
0.000353293
0.000355325
0.000354533
0.000351894
0.00034905
0.000347307
0.000347209
0.000348325
0.000349838
0.000351326
0.000352076
0.000352129
0.000351507
0.000350499
0.000349717
0.000349778
0.000350665
0.000351456
0.000351076
0.000349511
0.000348153
0.000348741
0.000351435
0.000354197
0.000354669
0.000352154
0.000348095
0.000345273
0.000345786
0.000349259
0.000353242
0.000355312
0.00035468
0.000352214
0.000349473
0.000347731
0.000347551
0.000348567
0.000350007
0.000351385
0.000352143
0.000352235
0.000351671
0.000350715
0.000349945
0.000349961
0.000350781
0.000351554
0.000351241
0.000349776
0.000348443
0.000348918
0.000351435
0.000354116
0.000354685
0.000352392
0.000348533
0.000345734
0.000346064
0.000349281
0.000353118
0.000355218
0.00035474
0.000352449
0.000349815
0.000348078
0.000347821
0.000348738
0.000350101
0.000351373
0.000352135
0.000352264
0.000351757
0.000350854
0.000350098
0.000350072
0.000350826
0.000351579
0.000351329
0.000349963
0.00034866
0.000349027
0.000351369
0.000353963
0.000354622
0.000352546
0.00034889
0.000346123
0.000346278
0.000349242
0.000352924
0.000355046
0.000354718
0.000352601
0.000350079
0.000348353
0.000348023
0.000348841
0.000350126
0.000351291
0.000352055
0.00035222
0.00035177
0.000350921
0.00035018
0.000350115
0.000350804
0.000351534
0.000351344
0.000350076
0.000348806
0.000349071
0.000351239
0.000353743
0.000354483
0.00035262
0.000349167
0.000346442
0.000346432
0.000349145
0.000352667
0.000354801
0.000354617
0.000352674
0.000350266
0.000348557
0.000348158
0.000348879
0.000350085
0.000351145
0.000351908
0.000352106
0.000351711
0.000350916
0.000350195
0.000350093
0.000350718
0.000351423
0.000351288
0.000350117
0.000348883
0.000349054
0.000351051
0.000353458
0.000354271
0.000352615
0.000349366
0.000346692
0.000346528
0.000348995
0.00035235
0.000354487
0.00035444
0.000352669
0.00035038
0.000348693
0.000348231
0.000348856
0.000349981
0.000350937
0.000351696
0.000351925
0.000351585
0.000350844
0.000350143
0.000350008
0.000350571
0.000351248
0.000351165
0.000350088
0.000348894
0.000348977
0.000350808
0.000353114
0.000353991
0.000352533
0.00034949
0.000346875
0.000346569
0.000348794
0.000351978
0.000354109
0.00035419
0.000352589
0.000350421
0.000348762
0.000348242
0.000348775
0.000349819
0.000350671
0.000351423
0.000351681
0.000351392
0.000350705
0.000350028
0.000349863
0.000350366
0.000351014
0.000350977
0.000349992
0.000348842
0.000348845
0.000350512
0.000352713
0.000353645
0.000352379
0.000349539
0.000346991
0.000346557
0.000348547
0.000351555
0.000353669
0.000353871
0.000352436
0.000350392
0.000348767
0.000348195
0.000348638
0.000349601
0.00035035
0.000351092
0.000351375
0.000351137
0.000350503
0.000349851
0.00034966
0.000350104
0.000350721
0.000350726
0.000349831
0.000348727
0.000348657
0.000350166
0.00035226
0.000353237
0.000352152
0.000349514
0.000347043
0.000346492
0.000348255
0.000351085
0.000353172
0.000353486
0.000352213
0.000350293
0.000348709
0.000348091
0.000348447
0.000349329
0.000349975
0.000350704
0.00035101
0.00035082
0.00035024
0.000349614
0.000349401
0.000349788
0.000350373
0.000350416
0.000349607
0.000348552
0.000348416
0.000349773
0.000351756
0.000352769
0.000351857
0.000349418
0.000347031
0.000346376
0.00034792
0.00035057
0.000352621
0.000353037
0.000351921
0.000350127
0.000348588
0.000347931
0.000348204
0.000349006
0.000349549
0.000350263
0.000350588
0.000350444
0.000349916
0.000349319
0.000349087
0.000349421
0.000349971
0.000350047
0.000349321
0.000348317
0.000348124
0.000349335
0.000351205
0.000352244
0.000351494
0.000349252
0.000346955
0.00034621
0.000347545
0.000350013
0.00035202
0.000352527
0.000351563
0.000349895
0.000348406
0.000347716
0.000347911
0.000348634
0.000349075
0.00034977
0.000350112
0.000350011
0.000349535
0.000348968
0.00034872
0.000349003
0.000349518
0.000349622
0.000348975
0.000348024
0.000347782
0.000348854
0.000350609
0.000351664
0.000351067
0.000349017
0.000346816
0.000345995
0.000347131
0.000349418
0.00035137
0.000351958
0.00035114
0.000349598
0.000348165
0.000347447
0.000347569
0.000348215
0.000348553
0.000349228
0.000349583
0.000349522
0.000349096
0.000348561
0.000348301
0.000348536
0.000349015
0.000349143
0.000348571
0.000347675
0.000347391
0.00034833
0.00034997
0.000351033
0.000350577
0.000348713
0.000346614
0.00034573
0.000346678
0.000348785
0.000350675
0.000351333
0.000350653
0.000349238
0.000347863
0.000347126
0.00034718
0.000347749
0.000347987
0.000348638
0.000349003
0.00034898
0.000348602
0.000348099
0.000347831
0.000348021
0.000348464
0.000348612
0.000348111
0.00034727
0.000346951
0.000347766
0.000349291
0.000350352
0.000350025
0.000348343
0.000346351
0.000345417
0.000346189
0.000348118
0.000349938
0.000350655
0.000350106
0.000348815
0.000347504
0.000346753
0.000346743
0.00034724
0.000347377
0.000348003
0.000348374
0.000348385
0.000348054
0.000347585
0.000347311
0.00034746
0.000347867
0.00034803
0.000347595
0.00034681
0.000346463
0.000347162
0.000348572
0.000349624
0.000349415
0.000347907
0.000346026
0.000345054
0.000345663
0.000347416
0.00034916
0.000349926
0.0003495
0.00034833
0.000347086
0.000346328
0.000346261
0.000346686
0.000346724
0.000347322
0.000347697
0.000347739
0.000347454
0.000347018
0.000346742
0.000346853
0.000347224
0.000347398
0.000347025
0.000346296
0.000345929
0.000346519
0.000347816
0.00034885
0.000348748
0.000347407
0.000345639
0.000344642
0.000345101
0.000346683
0.000348344
0.000349148
0.000348836
0.000347785
0.000346611
0.000345852
0.000345733
0.000346091
0.000346031
0.000346599
0.000346974
0.000347044
0.000346801
0.000346399
0.000346124
0.000346201
0.000346536
0.000346718
0.000346402
0.00034573
0.000345347
0.000345837
0.000347024
0.000348033
0.000348026
0.000346844
0.000345192
0.000344181
0.000344502
0.000345919
0.000347491
0.000348323
0.000348117
0.000347181
0.000346078
0.000345325
0.000345159
0.000345453
0.000345296
0.000345833
0.000346207
0.000346301
0.000346098
0.00034573
0.000345459
0.000345504
0.000345805
0.000345991
0.000345727
0.00034511
0.000344719
0.000345118
0.000346196
0.000347175
0.000347251
0.00034622
0.000344684
0.000343669
0.000343866
0.000345124
0.000346604
0.000347453
0.000347343
0.000346519
0.00034549
0.000344747
0.000344541
0.000344775
0.000344522
0.000345027
0.000345395
0.000345511
0.000345346
0.000345012
0.000344746
0.000344764
0.000345031
0.000345219
0.000345002
0.000344439
0.000344045
0.00034436
0.000345334
0.000346276
0.000346424
0.000345535
0.000344115
0.000343108
0.000343194
0.000344298
0.000345683
0.000346541
0.000346517
0.0003458
0.000344846
0.000344119
0.000343878
0.000344055
0.000343709
0.00034418
0.00034454
0.000344674
0.000344545
0.000344244
0.000343987
0.000343981
0.000344215
0.000344401
0.000344227
0.000343717
0.000343324
0.000343565
0.000344438
0.000345338
0.000345548
0.000344791
0.000343488
0.000342496
0.000342483
0.000343443
0.000344731
0.000345587
0.000345641
0.000345025
0.000344146
0.00034344
0.000343171
0.000343295
0.000342858
0.000343294
0.000343644
0.000343793
0.000343696
0.000343428
0.000343181
0.000343154
0.000343357
0.000343539
0.000343404
0.000342944
0.000342558
0.000342732
0.000343508
0.000344363
0.000344624
0.00034399
0.0003428
0.000341833
0.000341735
0.000342558
0.000343747
0.000344593
0.000344716
0.000344196
0.000343392
0.000342711
0.000342418
0.000342495
0.000341967
0.000342369
0.000342707
0.000342868
0.000342801
0.000342564
0.000342329
0.000342285
0.000342459
0.000342634
0.000342532
0.000342122
0.000341745
0.00034186
0.000342546
0.000343351
0.000343653
0.000343133
0.000342055
0.000341118
0.000340948
0.000341643
0.000342732
0.000343562
0.000343743
0.000343313
0.000342584
0.000341931
0.00034162
0.000341654
0.000341039
0.000341406
0.00034173
0.000341899
0.000341859
0.000341652
0.000341431
0.000341373
0.000341519
0.000341686
0.000341614
0.00034125
0.000340887
0.000340951
0.00034155
0.000342304
0.000342637
0.00034222
0.000341251
0.000340352
0.00034012
0.000340697
0.000341688
0.000342493
0.000342724
0.000342378
0.000341722
0.000341101
0.000340778
0.000340772
0.000340072
0.000340404
0.000340713
0.000340888
0.000340872
0.000340694
0.000340487
0.000340418
0.000340539
0.000340696
0.00034065
0.000340329
0.000339982
0.000340002
0.000340521
0.000341221
0.000341578
0.000341254
0.00034039
0.000339534
0.000339252
0.00033972
0.000340614
0.000341389
0.00034166
0.000341392
0.000340807
0.000340221
0.00033989
0.00033985
0.000339067
0.000339365
0.000339656
0.000339835
0.000339841
0.00033969
0.000339498
0.000339421
0.000339518
0.000339665
0.00033964
0.00033936
0.000339031
0.000339014
0.000339458
0.000340104
0.000340476
0.000340237
0.000339472
0.000338664
0.000338343
0.00033871
0.00033951
0.00034025
0.000340553
0.000340355
0.000339839
0.00033929
0.000338956
0.000338886
0.000338024
0.000338288
0.000338561
0.000338741
0.000338765
0.00033864
0.000338464
0.00033838
0.000338457
0.000338592
0.000338585
0.000338344
0.000338034
0.000337987
0.000338362
0.000338953
0.000339333
0.000339168
0.000338498
0.000337741
0.00033739
0.000337668
0.000338376
0.000339076
0.000339404
0.00033927
0.00033882
0.000338309
0.000337976
0.000337881
0.000336942
0.000337174
0.000337427
0.000337606
0.000337645
0.000337544
0.000337385
0.000337298
0.000337355
0.000337478
0.000337486
0.000337279
0.000336992
0.000336919
0.000337231
0.000337769
0.000338149
0.00033805
0.000337469
0.000336765
0.000336394
0.000336592
0.000337212
0.000337869
0.000338214
0.000338136
0.00033775
0.000337279
0.000336951
0.000336834
0.00033582
0.000336021
0.000336255
0.00033643
0.000336483
0.000336404
0.000336261
0.000336172
0.000336212
0.000336323
0.000336343
0.000336168
0.000335902
0.000335811
0.000336065
0.00033655
0.000336926
0.000336883
0.000336386
0.000335737
0.000335354
0.00033548
0.000336018
0.000336629
0.000336984
0.000336956
0.000336629
0.000336198
0.000335878
0.000335744
0.000334659
0.000334831
0.000335044
0.000335214
0.000335277
0.000335218
0.000335092
0.000335003
0.000335029
0.000335127
0.000335156
0.000335011
0.000334767
0.000334661
0.000334864
0.000335297
0.000335664
0.000335669
0.00033525
0.000334656
0.000334268
0.000334333
0.000334792
0.000335356
0.000335715
0.00033573
0.000335458
0.000335068
0.000334759
0.000334612
0.000333458
0.000333602
0.000333795
0.000333958
0.00033403
0.000333989
0.000333878
0.000333791
0.000333804
0.000333891
0.000333926
0.000333807
0.000333585
0.000333469
0.000333627
0.000334011
0.000334364
0.000334408
0.000334061
0.000333522
0.000333136
0.000333148
0.000333535
0.00033405
0.000334406
0.000334459
0.000334238
0.000333888
0.000333593
0.000333436
0.000332216
0.000332334
0.000332507
0.000332662
0.00033274
0.000332715
0.000332619
0.000332536
0.000332538
0.000332613
0.000332652
0.000332556
0.000332358
0.000332235
0.000332353
0.000332689
0.000333026
0.000333102
0.00033282
0.000332336
0.000331958
0.000331924
0.000332244
0.00033271
0.00033306
0.000333143
0.000332969
0.000332658
0.00033238
0.000332217
0.000330933
0.000331027
0.00033118
0.000331326
0.000331408
0.000331397
0.000331316
0.000331237
0.000331231
0.000331294
0.000331336
0.000331261
0.000331083
0.000330958
0.000331041
0.000331333
0.000331649
0.000331752
0.000331528
0.000331098
0.000330732
0.000330661
0.000330919
0.000331337
0.000331676
0.000331784
0.000331653
0.00033138
0.000331119
0.000330953
0.000329608
0.00032968
0.000329814
0.00032995
0.000330034
0.000330035
0.000329968
0.000329894
0.000329881
0.000329934
0.000329977
0.000329919
0.000329763
0.000329637
0.000329691
0.000329941
0.000330236
0.000330358
0.000330186
0.000329807
0.000329457
0.000329357
0.00032956
0.00032993
0.000330254
0.000330382
0.000330289
0.000330052
0.000329811
0.000329644
0.000328241
0.000328293
0.000328409
0.000328534
0.000328618
0.00032863
0.000328576
0.000328508
0.000328489
0.000328532
0.000328575
0.000328533
0.000328396
0.000328273
0.000328301
0.000328512
0.000328785
0.000328921
0.000328795
0.000328465
0.000328134
0.000328012
0.000328164
0.000328489
0.000328795
0.000328937
0.000328878
0.000328676
0.000328454
0.00032829
0.000326831
0.000326865
0.000326963
0.000327078
0.000327161
0.000327181
0.000327139
0.000327077
0.000327054
0.000327089
0.00032713
0.000327101
0.000326983
0.000326864
0.000326871
0.000327047
0.000327295
0.00032744
0.000327355
0.000327071
0.000326763
0.000326623
0.000326732
0.000327013
0.000327299
0.00032745
0.000327421
0.000327251
0.00032705
0.000326891
0.000325377
0.000325396
0.000325477
0.00032558
0.000325662
0.000325688
0.000325657
0.000325602
0.000325576
0.000325603
0.000325642
0.000325624
0.000325523
0.000325409
0.0003254
0.000325544
0.000325768
0.000325918
0.000325867
0.000325627
0.000325341
0.00032519
0.000325261
0.0003255
0.000325765
0.000325922
0.000325918
0.000325779
0.000325598
0.000325445
0.000323879
0.000323884
0.00032395
0.000324042
0.00032412
0.000324152
0.00032413
0.000324082
0.000324055
0.000324074
0.000324111
0.000324101
0.000324016
0.00032391
0.000323887
0.000324002
0.000324203
0.000324353
0.000324331
0.000324131
0.000323871
0.000323713
0.00032375
0.000323951
0.000324194
0.000324352
0.00032437
0.000324258
0.000324098
0.000323952
0.000322336
0.000322329
0.000322382
0.000322462
0.000322536
0.000322572
0.000322558
0.000322517
0.000322489
0.000322503
0.000322536
0.000322534
0.000322463
0.000322365
0.000322331
0.000322421
0.000322598
0.000322746
0.000322749
0.000322585
0.00032235
0.00032219
0.000322199
0.000322365
0.000322584
0.000322741
0.000322776
0.000322689
0.000322549
0.000322412
0.000320747
0.000320731
0.000320771
0.000320841
0.00032091
0.000320948
0.000320942
0.000320907
0.000320879
0.000320888
0.000320917
0.000320921
0.000320863
0.000320773
0.000320732
0.000320799
0.000320954
0.000321097
0.00032112
0.000320989
0.000320779
0.00032062
0.000320606
0.000320739
0.000320935
0.000321088
0.000321137
0.000321073
0.000320952
0.000320825
0.000319112
0.000319089
0.000319117
0.000319177
0.00031924
0.000319279
0.00031928
0.000319251
0.000319225
0.000319228
0.000319255
0.000319263
0.000319216
0.000319135
0.000319089
0.000319137
0.00031927
0.000319406
0.000319444
0.000319343
0.000319158
0.000319003
0.00031897
0.000319074
0.000319247
0.000319394
0.000319454
0.00031941
0.000319307
0.000319191
0.000317431
0.000317401
0.000317419
0.000317469
0.000317527
0.000317567
0.000317572
0.000317549
0.000317525
0.000317525
0.000317548
0.000317559
0.000317523
0.00031745
0.000317401
0.000317432
0.000317545
0.000317673
0.000317723
0.000317648
0.000317486
0.000317338
0.000317291
0.000317368
0.000317518
0.000317658
0.000317725
0.000317699
0.000317613
0.000317508
0.000315703
0.000315668
0.000315677
0.000315718
0.00031577
0.000315809
0.000315819
0.000315802
0.000315779
0.000315776
0.000315796
0.000315809
0.000315781
0.000315718
0.000315667
0.000315684
0.000315778
0.000315897
0.000315955
0.000315903
0.000315764
0.000315624
0.000315566
0.000315621
0.00031575
0.00031588
0.000315952
0.000315941
0.000315871
0.000315777
0.000313927
0.000313889
0.000313891
0.000313923
0.000313969
0.000314007
0.00031402
0.000314007
0.000313987
0.000313982
0.000313998
0.000314012
0.000313993
0.000313937
0.000313887
0.000313892
0.00031397
0.000314078
0.000314141
0.000314109