/*--------------------------------*- C++ -*----------------------------------*\
| =========                 |                                                 |
| \\      /  F ield         | OpenFOAM: The Open Source CFD Toolbox           |
|  \\    /   O peration     | Version:  v1912                                 |
|   \\  /    A nd           | Website:  www.openfoam.com                      |
|    \\/     M anipulation  |                                                 |
\*---------------------------------------------------------------------------*/
FoamFile
{
    version     2.0;
    format      ascii;
    class       volScalarField;
    location    "31187";
    object      nut;
}
// * * * * * * * * * * * * * * * * * * * * * * * * * * * * * * * * * * * * * //

dimensions      [0 2 -1 0 0 0 0];


internalField   nonuniform List<scalar> 
9000
(
2.22585e-09
2.23906e-09
2.22223e-09
2.18008e-09
2.13131e-09
2.1087e-09
2.13535e-09
2.19323e-09
2.22265e-09
2.17605e-09
2.0826e-09
2.03671e-09
2.1086e-09
2.2649e-09
2.38021e-09
2.34533e-09
2.16702e-09
1.97137e-09
1.90329e-09
2.00734e-09
2.20626e-09
2.36837e-09
2.40037e-09
2.30525e-09
2.1613e-09
2.05135e-09
2.01599e-09
2.05138e-09
2.11887e-09
2.18285e-09
3.17395e-07
3.18452e-07
3.17381e-07
3.14455e-07
3.10923e-07
3.09148e-07
3.10923e-07
3.15067e-07
3.17347e-07
3.14254e-07
3.07502e-07
3.03819e-07
3.08688e-07
3.19777e-07
3.28158e-07
3.26305e-07
3.14093e-07
2.99609e-07
2.93877e-07
3.01113e-07
3.15418e-07
3.27074e-07
3.29759e-07
3.23552e-07
3.13458e-07
3.05306e-07
3.02409e-07
3.04781e-07
3.09612e-07
3.1424e-07
1.98319e-06
1.98938e-06
1.98436e-06
1.96931e-06
1.9505e-06
1.94043e-06
1.94913e-06
1.97103e-06
1.98396e-06
1.96868e-06
1.93284e-06
1.91168e-06
1.93572e-06
1.99398e-06
2.03973e-06
2.03279e-06
1.97026e-06
1.89244e-06
1.85881e-06
1.89477e-06
1.96992e-06
2.03257e-06
2.049e-06
2.01842e-06
1.96581e-06
1.92181e-06
1.90498e-06
1.91643e-06
1.94157e-06
1.96611e-06
5.51579e-06
5.53275e-06
5.52202e-06
5.48578e-06
5.43879e-06
5.41198e-06
5.43176e-06
5.48612e-06
5.52055e-06
5.48537e-06
5.39603e-06
5.33909e-06
5.39414e-06
5.53794e-06
5.65568e-06
5.64593e-06
5.49587e-06
5.29979e-06
5.20772e-06
5.29036e-06
5.4754e-06
5.63392e-06
5.6807e-06
5.61053e-06
5.4819e-06
5.37049e-06
5.32482e-06
5.35016e-06
5.41131e-06
5.47231e-06
1.04131e-05
1.0445e-05
1.04287e-05
1.03671e-05
1.02846e-05
1.02354e-05
1.02674e-05
1.03622e-05
1.04255e-05
1.03679e-05
1.02115e-05
1.01061e-05
1.01956e-05
1.04454e-05
1.06569e-05
1.06503e-05
1.03955e-05
1.00496e-05
9.87715e-06
1.00117e-05
1.03322e-05
1.06131e-05
1.07033e-05
1.05888e-05
1.03672e-05
1.01699e-05
1.00848e-05
1.01245e-05
1.02293e-05
1.03357e-05
1.60132e-05
1.60623e-05
1.60409e-05
1.59521e-05
1.58308e-05
1.57561e-05
1.58006e-05
1.59397e-05
1.60357e-05
1.59548e-05
1.57247e-05
1.55641e-05
1.56891e-05
1.60546e-05
1.6371e-05
1.63716e-05
1.60047e-05
1.54936e-05
1.5229e-05
1.54166e-05
1.58842e-05
1.63008e-05
1.64416e-05
1.62815e-05
1.59592e-05
1.56671e-05
1.55368e-05
1.55905e-05
1.5742e-05
1.58982e-05
2.19235e-05
2.19912e-05
2.19647e-05
2.18474e-05
2.16849e-05
2.15832e-05
2.16406e-05
2.18264e-05
2.19572e-05
2.1852e-05
2.15441e-05
2.13247e-05
2.14864e-05
2.1974e-05
2.24021e-05
2.24114e-05
2.19267e-05
2.12409e-05
2.08779e-05
2.11202e-05
2.17424e-05
2.23028e-05
2.24984e-05
2.22912e-05
2.18629e-05
2.14704e-05
2.12917e-05
2.13594e-05
2.15599e-05
2.17685e-05
2.796e-05
2.80471e-05
2.80153e-05
2.78682e-05
2.7663e-05
2.75332e-05
2.7604e-05
2.78385e-05
2.80054e-05
2.78746e-05
2.74857e-05
2.72053e-05
2.74056e-05
2.80203e-05
2.85647e-05
2.85829e-05
2.79751e-05
2.71075e-05
2.66426e-05
2.69417e-05
2.77247e-05
2.84349e-05
2.86877e-05
2.84313e-05
2.78927e-05
2.73956e-05
2.71667e-05
2.72489e-05
2.75002e-05
2.77633e-05
3.40427e-05
3.41499e-05
3.41126e-05
3.39347e-05
3.36853e-05
3.35267e-05
3.36116e-05
3.38961e-05
3.41e-05
3.39425e-05
3.34701e-05
3.31273e-05
3.33677e-05
3.41139e-05
3.47781e-05
3.48048e-05
3.40694e-05
3.30144e-05
3.24451e-05
3.28032e-05
3.37521e-05
3.46168e-05
3.49284e-05
3.4621e-05
3.39682e-05
3.33634e-05
3.30827e-05
3.31798e-05
3.34836e-05
3.38029e-05
4.01393e-05
4.02671e-05
4.02241e-05
4.00145e-05
3.97198e-05
3.95318e-05
3.96312e-05
3.9967e-05
4.02086e-05
4.00234e-05
3.94653e-05
3.90591e-05
3.93411e-05
4.0222e-05
4.10091e-05
4.10439e-05
4.0177e-05
3.89302e-05
3.82545e-05
3.86731e-05
3.9792e-05
4.08154e-05
4.11874e-05
4.08273e-05
4.00573e-05
3.93419e-05
3.90081e-05
3.91205e-05
3.9478e-05
3.98551e-05
4.62385e-05
4.63875e-05
4.63387e-05
4.60969e-05
4.57559e-05
4.55379e-05
4.5652e-05
4.60401e-05
4.63198e-05
4.61064e-05
4.54612e-05
4.49906e-05
4.5315e-05
4.63334e-05
4.72457e-05
4.72887e-05
4.62875e-05
4.48453e-05
4.40613e-05
4.45413e-05
4.58332e-05
4.70187e-05
4.74526e-05
4.7039e-05
4.61493e-05
4.53212e-05
4.49331e-05
4.50607e-05
4.54727e-05
4.59088e-05
5.23388e-05
5.25097e-05
5.24553e-05
5.21807e-05
5.17929e-05
5.15442e-05
5.16731e-05
5.21139e-05
5.24325e-05
5.21905e-05
5.14572e-05
5.09212e-05
5.12882e-05
5.24459e-05
5.34858e-05
5.35377e-05
5.24004e-05
5.07603e-05
4.98658e-05
5.04065e-05
5.18736e-05
5.32243e-05
5.37222e-05
5.32549e-05
5.22439e-05
5.13009e-05
5.0857e-05
5.09994e-05
5.14665e-05
5.19626e-05
5.84431e-05
5.86366e-05
5.8577e-05
5.82696e-05
5.78343e-05
5.75544e-05
5.76976e-05
5.81915e-05
5.85496e-05
5.82793e-05
5.74572e-05
5.68547e-05
5.72637e-05
5.85619e-05
5.97317e-05
5.97937e-05
5.85199e-05
5.66797e-05
5.56721e-05
5.62722e-05
5.79154e-05
5.94343e-05
5.99985e-05
5.9478e-05
5.83448e-05
5.72854e-05
5.6784e-05
5.69402e-05
5.74624e-05
5.80192e-05
6.45559e-05
6.47731e-05
6.47088e-05
6.43686e-05
6.38855e-05
6.35736e-05
6.37305e-05
6.42776e-05
6.46758e-05
6.4378e-05
6.3467e-05
6.27966e-05
6.32464e-05
6.46856e-05
6.59874e-05
6.60615e-05
6.46518e-05
6.26102e-05
6.14865e-05
6.21432e-05
6.39627e-05
6.56524e-05
6.62858e-05
6.57136e-05
6.44579e-05
6.32805e-05
6.27197e-05
6.28882e-05
6.34654e-05
6.40834e-05
7.06826e-05
7.09245e-05
7.08563e-05
7.04838e-05
6.99526e-05
6.96078e-05
6.97776e-05
7.03776e-05
7.08168e-05
7.04924e-05
6.94927e-05
6.87531e-05
6.92417e-05
7.08217e-05
7.22577e-05
7.23468e-05
7.08027e-05
6.8559e-05
6.73156e-05
6.80251e-05
7.002e-05
7.18829e-05
7.25889e-05
7.19674e-05
7.05897e-05
6.9293e-05
6.86705e-05
6.88495e-05
6.94807e-05
7.01604e-05
7.68284e-05
7.70962e-05
7.70252e-05
7.66209e-05
7.60417e-05
7.56632e-05
7.58446e-05
7.64971e-05
7.6978e-05
7.66286e-05
7.55408e-05
7.47305e-05
7.52552e-05
7.6975e-05
7.85473e-05
7.86549e-05
7.69792e-05
7.45334e-05
7.31664e-05
7.39236e-05
7.60921e-05
7.81303e-05
7.89129e-05
7.82452e-05
7.67466e-05
7.53296e-05
7.46429e-05
7.48299e-05
7.55141e-05
7.62556e-05
8.29985e-05
8.32935e-05
8.32209e-05
8.27858e-05
8.21586e-05
8.17455e-05
8.19371e-05
8.26412e-05
8.31647e-05
8.27921e-05
8.16173e-05
8.07348e-05
8.12923e-05
8.31504e-05
8.48609e-05
8.4991e-05
8.31874e-05
8.05401e-05
7.90453e-05
7.98442e-05
8.21835e-05
8.4399e-05
8.52624e-05
8.45525e-05
8.29347e-05
8.13966e-05
8.06431e-05
8.08351e-05
8.15708e-05
8.2374e-05
8.91977e-05
8.95212e-05
8.94485e-05
8.89837e-05
8.83089e-05
8.78603e-05
8.80602e-05
8.88149e-05
8.93819e-05
8.89884e-05
8.77281e-05
8.67718e-05
8.73581e-05
8.9352e-05
9.12024e-05
9.13598e-05
8.94334e-05
8.65859e-05
8.4959e-05
8.57923e-05
8.82985e-05
9.06927e-05
9.16417e-05
9.08943e-05
8.916e-05
8.75003e-05
8.6677e-05
8.68708e-05
8.76559e-05
8.85206e-05
9.54303e-05
9.5784e-05
9.57128e-05
9.52196e-05
9.44977e-05
9.40128e-05
9.4219e-05
9.50228e-05
9.56339e-05
9.52222e-05
9.38785e-05
9.28469e-05
9.34575e-05
9.55841e-05
9.75758e-05
9.77657e-05
9.57224e-05
9.26771e-05
9.09134e-05
9.17731e-05
9.44411e-05
9.70151e-05
9.80546e-05
9.72753e-05
9.54278e-05
9.36463e-05
9.27503e-05
9.29421e-05
9.37743e-05
9.46997e-05
0.0001017
0.000102086
0.000102018
0.000101498
0.00010073
0.000100208
0.000100418
0.000101269
0.000101925
0.000101498
0.000100074
9.89653e-05
9.95952e-05
0.00010185
0.000103984
0.000104213
0.000102059
9.88193e-05
9.69144e-05
9.77914e-05
0.000100615
0.000103369
0.000104505
0.0001037
0.000101743
9.984e-05
9.88682e-05
9.90539e-05
9.99302e-05
0.000100916
0.000108012
0.00010843
0.000108368
0.000107823
0.00010701
0.00010645
0.000106661
0.000107558
0.000108259
0.00010782
0.000106318
0.000105132
0.000105775
0.000108154
0.000110431
0.000110704
0.000108449
0.000105018
0.000102968
0.000103852
0.000106824
0.000109758
0.000110995
0.000110171
0.00010811
0.000106087
0.000105036
0.000105211
0.000106128
0.000107172
0.000114368
0.000114821
0.000114766
0.000114199
0.000113342
0.000112743
0.000112953
0.000113892
0.00011464
0.000114193
0.000112616
0.000111351
0.000112002
0.000114498
0.000116918
0.000117242
0.000114894
0.000111279
0.000109078
0.000109959
0.000113071
0.000116184
0.000117527
0.000116693
0.000114534
0.00011239
0.000111258
0.000111417
0.000112371
0.000113473
0.000120772
0.000121262
0.000121216
0.000120629
0.000119729
0.000119091
0.000119297
0.000120276
0.00012107
0.000120618
0.000118972
0.000117627
0.000118279
0.000120886
0.000123449
0.00012383
0.0001214
0.000117605
0.000115251
0.000116117
0.000119359
0.000122649
0.000124105
0.000123268
0.000121017
0.000118756
0.000117538
0.000117677
0.000118664
0.000119821
0.000127226
0.000127754
0.000127721
0.000127117
0.000126176
0.000125498
0.000125697
0.000126713
0.000127552
0.000127101
0.000125389
0.000123965
0.00012461
0.000127321
0.000130025
0.000130471
0.00012797
0.000124003
0.000121492
0.00012233
0.000125691
0.000129156
0.000130729
0.000129899
0.000127564
0.000125188
0.000123882
0.000123994
0.00012501
0.000126219
0.000133733
0.000134301
0.000134283
0.000133665
0.000132686
0.000131967
0.000132156
0.000133204
0.00013409
0.000133643
0.000131872
0.000130367
0.000130998
0.000133804
0.000136647
0.000137166
0.000134606
0.000130476
0.000127805
0.000128603
0.00013207
0.000135706
0.000137403
0.000136589
0.000134177
0.000131689
0.000130293
0.000130372
0.000131411
0.000132671
0.000140297
0.000140906
0.000140905
0.000140276
0.000139261
0.000138501
0.000138677
0.000139754
0.000140685
0.000140247
0.000138422
0.000136838
0.000137448
0.000140338
0.000143318
0.000143916
0.00014131
0.000137028
0.000134194
0.000134939
0.000138499
0.000142301
0.000144126
0.000143338
0.000140859
0.000138263
0.000136774
0.000136816
0.000137872
0.000139179
0.000146918
0.000147569
0.000147589
0.000146952
0.000145904
0.000145104
0.000145262
0.000146364
0.00014734
0.000146916
0.000145043
0.00014338
0.000143961
0.000146926
0.000150039
0.000150724
0.000148086
0.000143662
0.000140664
0.000141341
0.00014498
0.000148942
0.0001509
0.00015015
0.000147613
0.000144913
0.00014333
0.000143327
0.000144395
0.000145746
0.000153599
0.000154294
0.000154338
0.000153696
0.000152618
0.000151778
0.000151915
0.000153037
0.000154057
0.000153652
0.000151739
0.000149998
0.000150541
0.000153569
0.000156811
0.00015759
0.000154935
0.000150381
0.000147219
0.000147815
0.000151516
0.000155631
0.000157726
0.000157024
0.000154441
0.000151642
0.000149963
0.00014991
0.000150983
0.000152374
0.000160342
0.000161082
0.000161152
0.000160511
0.000159406
0.000158525
0.000158639
0.000159776
0.000160838
0.000160457
0.00015851
0.000156694
0.000157192
0.00016027
0.000163635
0.000164515
0.000161859
0.000157189
0.000153862
0.000154364
0.00015811
0.00016237
0.000164605
0.000163963
0.000161345
0.000158454
0.000156677
0.000156567
0.000157639
0.000159065
0.000167149
0.000167935
0.000168034
0.000167397
0.000166269
0.000165349
0.000165435
0.000166582
0.000167685
0.000167332
0.000165361
0.000163471
0.000163915
0.000167031
0.000170514
0.0001715
0.000168859
0.000164087
0.000160598
0.000160991
0.000164764
0.000169159
0.000171538
0.000170966
0.000168326
0.00016535
0.000163475
0.000163302
0.000164366
0.000165822
0.000174022
0.000174854
0.000174985
0.000174356
0.00017321
0.000172252
0.000172306
0.000173457
0.000174599
0.00017428
0.000172291
0.000170332
0.000170714
0.000173855
0.000177446
0.000178546
0.000175937
0.000171079
0.00016743
0.000167701
0.000171482
0.000176
0.000178525
0.000178035
0.000175386
0.000172332
0.00017036
0.000170118
0.000171166
0.000172647
0.000180962
0.000181841
0.000182006
0.000181391
0.000180229
0.000179235
0.000179255
0.000180404
0.000181582
0.000181302
0.000179305
0.000177279
0.000177592
0.000180742
0.000184435
0.000185654
0.000183092
0.000178165
0.00017436
0.000174496
0.000178265
0.000182895
0.000185566
0.000185171
0.000182525
0.000179403
0.000177334
0.000177017
0.000178042
0.000179542
0.000187972
0.000188898
0.0001891
0.000188501
0.00018733
0.0001863
0.000186283
0.000187425
0.000188637
0.000188398
0.000186402
0.000184314
0.00018455
0.000187696
0.000191481
0.000192823
0.000190326
0.000185349
0.000181393
0.00018138
0.000185118
0.000189845
0.000192663
0.000192373
0.000189745
0.000186564
0.000184399
0.000184003
0.000184996
0.00018651
0.000195052
0.000196024
0.000196266
0.000195689
0.000194512
0.00019345
0.000193392
0.000194521
0.000195763
0.000195571
0.000193585
0.00019144
0.000191593
0.000194718
0.000198584
0.000200055
0.000197639
0.000192629
0.000188529
0.000188358
0.000192042
0.000196852
0.000199816
0.000199642
0.000197046
0.000193816
0.000191558
0.000191077
0.000192031
0.000193551
0.000202204
0.000203223
0.000203506
0.000202956
0.000201779
0.000200686
0.000200585
0.000201694
0.000202963
0.000202822
0.000200854
0.000198657
0.000198721
0.000201811
0.000205748
0.000207348
0.000205031
0.000200008
0.000195772
0.000195431
0.000199041
0.000203917
0.000207026
0.000206977
0.000204429
0.00020116
0.000198813
0.000198242
0.000199149
0.000200669
0.00020943
0.000210494
0.000210822
0.000210302
0.000209129
0.000208009
0.000207863
0.000208947
0.000210238
0.000210151
0.000208211
0.000205969
0.000205937
0.000208977
0.000212971
0.000214705
0.000212502
0.000207486
0.000203123
0.000202604
0.000206118
0.000211043
0.000214292
0.000214379
0.000211893
0.000208598
0.000206165
0.0002055
0.000206353
0.000207865
0.000216731
0.000217839
0.000218213
0.000217728
0.000216565
0.000215421
0.000215228
0.00021628
0.000217589
0.000217559
0.000215656
0.000213376
0.000213245
0.000216218
0.000220257
0.000222124
0.000220051
0.000215064
0.000210585
0.000209879
0.000213277
0.000218232
0.000221615
0.000221847
0.000219438
0.00021613
0.000213616
0.000212854
0.000213644
0.000215142
0.000224109
0.000225259
0.00022568
0.000225234
0.000224088
0.000222922
0.000222681
0.000223695
0.000225018
0.000225047
0.00022319
0.000220879
0.000220645
0.000223537
0.000227607
0.000229606
0.000227679
0.00022274
0.000218157
0.000217259
0.00022052
0.000225485
0.000228998
0.000229381
0.000227064
0.000223756
0.000221167
0.000220306
0.000221026
0.0002225
0.000231566
0.000232755
0.000233225
0.000232822
0.000231697
0.000230514
0.000230223
0.000231195
0.000232526
0.000232616
0.000230814
0.000228479
0.000228139
0.000230937
0.000235022
0.000237152
0.000235383
0.000230514
0.000225842
0.000224746
0.000227851
0.000232806
0.000236439
0.000236981
0.00023477
0.000231476
0.000228819
0.000227857
0.0002285
0.000229943
0.000239103
0.000240329
0.000240848
0.000240492
0.000239393
0.000238198
0.000237857
0.00023878
0.000240115
0.000240266
0.000238527
0.000236178
0.00023573
0.000238418
0.000242504
0.000244762
0.000243164
0.000238386
0.00023364
0.000232344
0.000235273
0.000240197
0.00024394
0.000244647
0.000242557
0.00023929
0.000236573
0.000235508
0.000236068
0.000237472
0.00024672
0.000247981
0.000248549
0.000248244
0.000247176
0.000245973
0.000245583
0.000246453
0.000247784
0.000247998
0.000246329
0.000243975
0.000243419
0.000245985
0.000250056
0.000252436
0.00025102
0.000246354
0.000241551
0.000240055
0.00024279
0.00024766
0.000251503
0.000252377
0.000250421
0.000247197
0.000244428
0.000243262
0.000243732
0.00024509
0.000254421
0.000255711
0.000256329
0.000256078
0.000255047
0.000253841
0.000253402
0.000254213
0.000255537
0.000255812
0.000254222
0.00025187
0.000251208
0.000253639
0.000257678
0.000260174
0.000258951
0.000254417
0.000249574
0.000247879
0.000250404
0.000255199
0.000259129
0.000260173
0.000258364
0.000255196
0.000252386
0.000251119
0.000251493
0.000252797
0.000262207
0.000263523
0.000264189
0.000263994
0.000263006
0.000261801
0.000261315
0.000262064
0.000263373
0.000263708
0.000262203
0.000259865
0.000259098
0.000261383
0.000265373
0.000267978
0.000266955
0.000262574
0.000257709
0.000255819
0.000258119
0.000262816
0.000266819
0.000268034
0.000266383
0.000263287
0.000260446
0.00025908
0.000259354
0.000260595
0.000270078
0.000271415
0.000272129
0.000271993
0.000271052
0.000269855
0.000269322
0.000270005
0.000271294
0.000271688
0.000270273
0.000267958
0.000267089
0.000269218
0.000273144
0.000275848
0.000275031
0.000270821
0.000265955
0.000263876
0.000265938
0.000270515
0.000274575
0.00027596
0.000274478
0.000271468
0.000268607
0.000267147
0.000267316
0.000268488
0.000278037
0.00027939
0.00028015
0.000280074
0.000279185
0.000278
0.000277425
0.000278039
0.000279301
0.000279751
0.000278432
0.00027615
0.000275184
0.000277148
0.000280992
0.000283784
0.000283178
0.000279158
0.000274311
0.000272051
0.000273864
0.000278299
0.000282399
0.00028395
0.000282647
0.000279738
0.000276869
0.000275318
0.00027538
0.000276475
0.000286084
0.000287448
0.000288252
0.000288238
0.000287405
0.000286238
0.000285622
0.000286166
0.000287394
0.000287897
0.000286679
0.000284439
0.000283381
0.000285174
0.000288921
0.000291789
0.000291396
0.000287582
0.000282774
0.000280344
0.000281898
0.000286172
0.000290294
0.000292006
0.000290889
0.000288095
0.00028523
0.000283595
0.000283547
0.000284559
0.000294222
0.000295591
0.000296436
0.000296484
0.000295712
0.000294568
0.000293916
0.000294386
0.000295576
0.000296128
0.000295013
0.000292826
0.000291682
0.000293298
0.000296932
0.000299863
0.000299683
0.00029609
0.000291343
0.000288754
0.000290045
0.000294135
0.00029826
0.000300127
0.000299203
0.000296538
0.000293691
0.000291977
0.000291818
0.00029274
0.000302451
0.000303819
0.000304701
0.000304812
0.000304104
0.00030299
0.000302305
0.000302701
0.000303847
0.000304442
0.000303434
0.000301308
0.000300087
0.000301522
0.000305027
0.000308007
0.000308038
0.000304679
0.000300015
0.000297282
0.000298305
0.000302194
0.000306301
0.000308314
0.000307588
0.000305063
0.000302248
0.000300464
0.000300194
0.000301021
0.000310774
0.000312134
0.00031305
0.000313222
0.000312582
0.000311502
0.000310789
0.000311112
0.000312208
0.000312841
0.00031194
0.000309884
0.000308595
0.000309848
0.00031321
0.000316223
0.000316462
0.000313349
0.000308788
0.000305927
0.00030668
0.00031035
0.00031442
0.000316567
0.000316042
0.000313671
0.0003109
0.000309055
0.000308675
0.000309403
0.000319191
0.000320536
0.000321481
0.000321715
0.000321144
0.000320104
0.000319368
0.000319617
0.000320659
0.000321325
0.000320532
0.000318555
0.000317207
0.000318276
0.000321483
0.000324513
0.000324952
0.000322094
0.000317658
0.000314687
0.000315173
0.000318608
0.000322619
0.000324889
0.000324564
0.000322357
0.000319645
0.000317749
0.000317261
0.000317885
0.000327703
0.000329027
0.000329996
0.000330289
0.000329789
0.000328795
0.000328042
0.000328219
0.000329201
0.000329894
0.000329208
0.000327317
0.00032592
0.000326808
0.000329848
0.000332878
0.000333509
0.000330914
0.000326622
0.000323561
0.000323783
0.000326969
0.000330901
0.000333279
0.000333154
0.000331121
0.000328482
0.000326544
0.000325951
0.00032647
0.000336311
0.000337607
0.000338595
0.000338945
0.000338518
0.000337574
0.000336809
0.000336916
0.000337834
0.000338548
0.000337967
0.00033617
0.000334735
0.000335445
0.000338307
0.00034132
0.000342132
0.000339806
0.000335677
0.000332545
0.000332511
0.000335437
0.000339269
0.000341739
0.000341811
0.00033996
0.000337406
0.000335439
0.000334747
0.000335157
0.000345016
0.000346277
0.000347279
0.000347682
0.000347329
0.000346439
0.000345669
0.000345708
0.00034656
0.000347287
0.000346809
0.000345111
0.00034365
0.000344187
0.000346862
0.000349841
0.000350822
0.000348767
0.000344818
0.000341639
0.000341357
0.000344014
0.000347725
0.00035027
0.000350535
0.000348871
0.000346417
0.000344432
0.000343646
0.000343948
0.000353819
0.000355038
0.000356048
0.000356501
0.000356222
0.00035539
0.00035462
0.000354595
0.000355378
0.000356112
0.000355732
0.000354139
0.000352664
0.000353033
0.000355515
0.000358442
0.000359579
0.000357794
0.000354044
0.000350838
0.000350322
0.000352702
0.000356273
0.000358875
0.000359324
0.000357854
0.000355511
0.000353522
0.000352647
0.00035284
0.000362721
0.000363891
0.000364902
0.000365402
0.000365195
0.000364425
0.000363661
0.000363577
0.000364288
0.000365022
0.000364736
0.000363253
0.000361774
0.000361985
0.000364267
0.000367127
0.000368403
0.000366887
0.000363348
0.000360139
0.000359403
0.000361503
0.000364916
0.000367555
0.000368179
0.000366906
0.000364686
0.000362704
0.00036175
0.000361836
0.000371721
0.000372836
0.000373842
0.000374383
0.000374248
0.000373543
0.000372791
0.000372652
0.000373291
0.000374017
0.000373821
0.000372449
0.000370978
0.000371041
0.00037312
0.000375896
0.000377294
0.000376042
0.000372728
0.000369539
0.000368599
0.000370418
0.000373655
0.000376312
0.0003771
0.000376025
0.000373938
0.000371978
0.000370953
0.000370933
0.000380819
0.000381874
0.000382868
0.000383445
0.000383379
0.000382741
0.000382008
0.000381819
0.000382386
0.000383098
0.000382984
0.000381727
0.000380275
0.0003802
0.000382075
0.000384752
0.000386254
0.000385259
0.000382181
0.000379033
0.000377908
0.000379447
0.000382494
0.000385148
0.000386087
0.000385209
0.000383265
0.000381339
0.000380253
0.000380132
0.000390016
0.000391005
0.000391981
0.000392588
0.000392589
0.00039202
0.00039131
0.000391078
0.000391572
0.000392264
0.000392226
0.000391084
0.000389663
0.000389461
0.000391133
0.000393696
0.000395284
0.000394536
0.000391701
0.000388617
0.000387327
0.000388592
0.000391434
0.000394065
0.00039514
0.000394457
0.000392664
0.000390785
0.000389648
0.000389431
0.000399311
0.000400229
0.00040118
0.000401812
0.000401876
0.000401376
0.000400696
0.000400426
0.000400848
0.000401515
0.000401545
0.000400518
0.000399137
0.000398822
0.000400293
0.00040273
0.000404384
0.000403871
0.000401286
0.000398287
0.000396855
0.00039785
0.000400478
0.000403066
0.000404261
0.000403768
0.000402132
0.000400313
0.000399135
0.000398827
0.000408702
0.000409546
0.000410466
0.000411116
0.000411238
0.000410809
0.000410163
0.000409862
0.000410215
0.000410851
0.000410941
0.000410027
0.000408696
0.000408282
0.000409556
0.000411856
0.000413555
0.000413264
0.000410932
0.000408037
0.000406485
0.000407223
0.000409627
0.000412151
0.00041345
0.00041314
0.000411666
0.000409919
0.000408713
0.00040832
0.00041819
0.000418955
0.000419838
0.000420499
0.000420677
0.000420317
0.000419709
0.000419383
0.00041967
0.000420271
0.000420414
0.00041961
0.000418337
0.000417837
0.00041892
0.000421074
0.0004228
0.000422714
0.000420636
0.000417864
0.000416216
0.000416708
0.000418881
0.000421324
0.000422707
0.000422573
0.000421265
0.000419599
0.000418377
0.000417908
0.000427772
0.000428456
0.000429296
0.000429963
0.000430189
0.000429898
0.000429333
0.000428989
0.000429212
0.000429774
0.000429961
0.000429264
0.000428057
0.000427485
0.000428386
0.000430385
0.000432118
0.000432222
0.000430396
0.000427763
0.000426042
0.000426303
0.000428242
0.000430586
0.000432035
0.000432066
0.000430924
0.000429352
0.000428124
0.000427587
0.000437446
0.000438048
0.00043884
0.000439506
0.000439776
0.00043955
0.000439032
0.000438676
0.00043884
0.000439359
0.000439582
0.000438988
0.000437853
0.000437223
0.000437951
0.00043979
0.000441512
0.000441785
0.000440207
0.000437728
0.000435959
0.000436005
0.00043771
0.000439939
0.000441434
0.000441617
0.000440642
0.000439172
0.000437951
0.000437355
0.000447211
0.00044773
0.00044847
0.000449127
0.000449435
0.000449273
0.000448802
0.000448442
0.000448551
0.000449025
0.000449276
0.00044878
0.000447721
0.000447049
0.000447614
0.00044929
0.000450982
0.000451406
0.000450068
0.000447755
0.000445962
0.000445812
0.000447283
0.000449383
0.000450905
0.000451228
0.000450417
0.000449057
0.000447854
0.000447209
0.000457064
0.0004575
0.000458183
0.000458826
0.000459165
0.000459063
0.000458644
0.000458284
0.000458344
0.000458771
0.000459043
0.000458637
0.000457659
0.000456957
0.000457372
0.000458883
0.000460529
0.000461083
0.000459977
0.00045784
0.000456044
0.000455719
0.000456962
0.000458919
0.00046045
0.000460898
0.000460247
0.000459002
0.000457829
0.000457145
0.000467002
0.000467356
0.000467979
0.000468603
0.000468967
0.000468921
0.000468552
0.000468199
0.000468215
0.000468596
0.00046888
0.000468558
0.000467663
0.000466945
0.000467223
0.000468569
0.000470154
0.000470817
0.000469931
0.000467978
0.000466202
0.000465722
0.000466743
0.000468549
0.000470069
0.000470626
0.000470129
0.000469005
0.000467873
0.00046716
0.000477022
0.000477296
0.000477857
0.000478455
0.000478837
0.000478843
0.000478527
0.000478186
0.000478163
0.000478497
0.000478787
0.000478541
0.000477731
0.000477008
0.000477163
0.000478346
0.000479858
0.000480609
0.00047993
0.000478164
0.000476428
0.000475816
0.000476625
0.000478271
0.000479763
0.000480413
0.000480063
0.000479063
0.00047798
0.000477249
0.00048712
0.000487318
0.000487815
0.000488382
0.000488776
0.000488828
0.000488563
0.000488239
0.000488185
0.000488472
0.000488762
0.000488585
0.000487859
0.000487143
0.000487189
0.000488214
0.00048964
0.000490459
0.000489972
0.000488396
0.000486718
0.000485997
0.000486605
0.000488086
0.000489533
0.000490259
0.000490046
0.000489172
0.000488147
0.000487408
0.000497293
0.000497418
0.00049785
0.000498382
0.000498781
0.000498875
0.00049866
0.000498357
0.000498276
0.000498518
0.000498802
0.000498686
0.000498044
0.000497344
0.000497296
0.000498169
0.000499501
0.000500367
0.000500055
0.000498668
0.000497066
0.000496257
0.000496679
0.000497993
0.000499379
0.000500164
0.000500078
0.000499329
0.000498371
0.000497634
0.000507536
0.000507593
0.000507961
0.000508453
0.000508852
0.000508982
0.000508815
0.000508536
0.000508435
0.000508634
0.000508908
0.000508844
0.000508283
0.000507609
0.00050748
0.00050821
0.000509439
0.000510334
0.000510179
0.000508978
0.000507466
0.000506593
0.000506842
0.000507988
0.000509302
0.000510128
0.000510157
0.000509532
0.000508646
0.000507921
0.000517846
0.000517839
0.000518144
0.000518594
0.000518986
0.000519145
0.000519025
0.000518773
0.000518656
0.000518816
0.000519075
0.000519056
0.000518573
0.000517932
0.000517737
0.000518332
0.000519453
0.000520359
0.000520344
0.000519323
0.000517912
0.000516996
0.000517091
0.000518071
0.0005193
0.000520151
0.000520283
0.000519777
0.000518969
0.000518265
0.000528217
0.000528153
0.000528396
0.000528801
0.000529182
0.000529365
0.000529287
0.000529064
0.000528938
0.000529062
0.000529302
0.000529321
0.000528911
0.000528309
0.000528062
0.000528532
0.000529543
0.000530443
0.000530547
0.0005297
0.0005284
0.000527461
0.000527419
0.000528239
0.000529373
0.000530233
0.000530453
0.000530062
0.000529335
0.000528661
0.000538644
0.000538531
0.000538714
0.000539073
0.000539436
0.000539637
0.000539598
0.000539406
0.000539275
0.000539366
0.000539587
0.000539635
0.000539293
0.000538736
0.00053845
0.000538806
0.000539705
0.000540585
0.00054079
0.000540106
0.000538923
0.000537981
0.000537821
0.000538486
0.000539519
0.000540373
0.000540668
0.000540385
0.000539742
0.000539105
0.000549123
0.000548967
0.000549093
0.000549405
0.000549748
0.000549961
0.000549957
0.000549795
0.000549664
0.000549726
0.000549925
0.000549996
0.000549718
0.000549208
0.000548895
0.000549149
0.000549937
0.000550783
0.000551072
0.000550539
0.000549479
0.00054855
0.00054829
0.00054881
0.000549736
0.00055057
0.000550927
0.000550744
0.000550185
0.000549591
0.000559648
0.000559456
0.000559531
0.000559795
0.000560113
0.000560333
0.000560359
0.000560227
0.000560101
0.000560138
0.000560315
0.000560402
0.000560181
0.000559721
0.000559392
0.000559556
0.000560236
0.000561038
0.000561391
0.000560997
0.00056006
0.000559161
0.000558821
0.000559206
0.000560022
0.000560824
0.000561227
0.000561136
0.000560661
0.000560115
0.000570214
0.000569993
0.000570021
0.000570239
0.000570529
0.00057075
0.000570802
0.0005707
0.000570581
0.000570598
0.000570751
0.000570849
0.00057068
0.00057027
0.000569935
0.000570021
0.000570597
0.000571347
0.000571746
0.000571478
0.000570664
0.000569807
0.000569405
0.000569667
0.000570373
0.000571133
0.000571568
0.000571559
0.000571165
0.000570673
0.000580816
0.000580574
0.000580559
0.000580732
0.000580992
0.00058121
0.000581283
0.000581209
0.0005811
0.0005811
0.000581231
0.000581336
0.000581211
0.000580851
0.000580518
0.000580539
0.000581017
0.000581707
0.000582138
0.00058198
0.000581287
0.000580483
0.000580036
0.000580188
0.000580786
0.000581494
0.000581949
0.000582011
0.000581695
0.000581258
0.000591448
0.000591192
0.00059114
0.00059127
0.000591499
0.000591709
0.000591799
0.00059175
0.000591653
0.000591641
0.000591751
0.000591857
0.000591771
0.00059146
0.000591137
0.000591104
0.000591491
0.000592116
0.000592563
0.000592501
0.000591923
0.000591182
0.000590707
0.000590763
0.000591255
0.000591905
0.000592367
0.00059249
0.000592248
0.000591868
0.000602104
0.000601841
0.000601757
0.000601848
0.000602045
0.000602243
0.000602345
0.00060232
0.000602236
0.000602215
0.000602306
0.00060241
0.000602356
0.000602092
0.000601784
0.000601709
0.000602013
0.000602571
0.000603021
0.000603039
0.000602571
0.000601898
0.00060141
0.000601384
0.000601776
0.000602362
0.00060282
0.000602993
0.000602819
0.000602497
0.000612779
0.000612515
0.000612406
0.00061246
0.000612625
0.000612809
0.000612918
0.000612913
0.000612844
0.000612818
0.00061289
0.00061299
0.000612963
0.000612742
0.000612456
0.000612348
0.000612577
0.000613067
0.000613509
0.000613593
0.000613225
0.000612626
0.000612138
0.000612044
0.000612344
0.000612863
0.000613307
0.000613518
0.000613406
0.00061314
0.000623468
0.000623209
0.000623081
0.000623102
0.000623235
0.000623402
0.000623514
0.000623527
0.000623472
0.000623443
0.0006235
0.000623593
0.000623588
0.000623407
0.000623144
0.000623014
0.000623177
0.0006236
0.000624024
0.000624159
0.000623884
0.000623359
0.000622884
0.000622736
0.000622951
0.000623401
0.000623823
0.000624062
0.000624005
0.000623794
0.000634165
0.000633916
0.000633774
0.000633766
0.000633869
0.000634017
0.000634129
0.000634156
0.000634116
0.000634086
0.000634129
0.000634214
0.000634226
0.000634082
0.000633845
0.0006337
0.000633807
0.000634165
0.000634563
0.000634737