/*--------------------------------*- C++ -*----------------------------------*\
| =========                 |                                                 |
| \\      /  F ield         | OpenFOAM: The Open Source CFD Toolbox           |
|  \\    /   O peration     | Version:  v1912                                 |
|   \\  /    A nd           | Website:  www.openfoam.com                      |
|    \\/     M anipulation  |                                                 |
\*---------------------------------------------------------------------------*/
FoamFile
{
    version     2.0;
    format      ascii;
    class       volScalarField;
    location    "31187";
    object      p;
}
// * * * * * * * * * * * * * * * * * * * * * * * * * * * * * * * * * * * * * //

dimensions      [0 2 -2 0 0 0 0];


internalField   nonuniform List<scalar> 
9000
(
-2.82999e-07
2.79803e-07
6.95618e-07
8.23357e-07
5.01585e-07
-1.66149e-07
-6.75961e-07
-4.58419e-07
4.47885e-07
1.19317e-06
7.96628e-07
-7.35011e-07
-2.06533e-06
-1.74983e-06
2.21278e-07
2.44504e-06
3.20741e-06
1.67405e-06
-1.1473e-06
-3.07173e-06
-2.8413e-06
-9.34133e-07
1.2569e-06
2.48414e-06
2.29021e-06
1.08979e-06
-2.91906e-07
-1.13249e-06
-1.215e-06
-8.43773e-07
-2.87513e-07
2.77905e-07
6.96764e-07
8.2713e-07
5.05954e-07
-1.64394e-07
-6.78604e-07
-4.63178e-07
4.4636e-07
1.19822e-06
8.04903e-07
-7.32063e-07
-2.0731e-06
-1.76391e-06
2.11761e-07
2.44856e-06
3.22348e-06
1.69206e-06
-1.14079e-06
-3.08107e-06
-2.85896e-06
-9.48634e-07
1.25292e-06
2.49091e-06
2.30235e-06
1.10039e-06
-2.87429e-07
-1.13445e-06
-1.22049e-06
-8.49768e-07
-2.93056e-07
2.75211e-07
6.97583e-07
8.31175e-07
5.11064e-07
-1.61926e-07
-6.81175e-07
-4.68642e-07
4.44051e-07
1.20344e-06
8.14525e-07
-7.27686e-07
-2.08093e-06
-1.78003e-06
1.99525e-07
2.45076e-06
3.24093e-06
1.71335e-06
-1.1314e-06
-3.08995e-06
-2.87878e-06
-9.6637e-07
1.24657e-06
2.49726e-06
2.31584e-06
1.1131e-06
-2.81249e-07
-1.13577e-06
-1.22633e-06
-8.56677e-07
-2.98874e-07
2.71638e-07
6.97225e-07
8.34176e-07
5.15849e-07
-1.58715e-07
-6.82426e-07
-4.7348e-07
4.40793e-07
1.20681e-06
8.23332e-07
-7.2164e-07
-2.08554e-06
-1.79431e-06
1.85746e-07
2.44878e-06
3.25432e-06
1.73378e-06
-1.1187e-06
-3.0938e-06
-2.89556e-06
-9.84722e-07
1.23691e-06
2.49984e-06
2.32703e-06
1.12576e-06
-2.7332e-07
-1.13485e-06
-1.23058e-06
-8.6298e-07
-3.04706e-07
2.67187e-07
6.95442e-07
8.35697e-07
5.19913e-07
-1.54801e-07
-6.81942e-07
-4.77162e-07
4.36647e-07
1.20766e-06
8.30468e-07
-7.14031e-07
-2.08594e-06
-1.80538e-06
1.71063e-07
2.44186e-06
3.26188e-06
1.7518e-06
-1.10274e-06
-3.09116e-06
-2.90751e-06
-1.00269e-06
1.22379e-06
2.49763e-06
2.3347e-06
1.13762e-06
-2.63669e-07
-1.13117e-06
-1.23257e-06
-8.68173e-07
-3.10111e-07
2.62153e-07
6.923e-07
8.3554e-07
5.22884e-07
-1.50467e-07
-6.79655e-07
-4.79291e-07
4.31938e-07
1.20579e-06
8.35218e-07
-7.05443e-07
-2.0819e-06
-1.81216e-06
1.56676e-07
2.43036e-06
3.26266e-06
1.7658e-06
-1.08464e-06
-3.0819e-06
-2.91342e-06
-1.01881e-06
1.20808e-06
2.49055e-06
2.33808e-06
1.14773e-06
-2.52931e-07
-1.12486e-06
-1.23204e-06
-8.71805e-07
-3.14634e-07
2.56854e-07
6.87886e-07
8.33532e-07
5.24424e-07
-1.45987e-07
-6.75545e-07
-4.79547e-07
4.26952e-07
1.20104e-06
8.36975e-07
-6.96401e-07
-2.07327e-06
-1.81369e-06
1.43704e-07
2.41466e-06
3.25589e-06
1.77431e-06
-1.06551e-06
-3.06602e-06
-2.9122e-06
-1.03168e-06
1.19068e-06
2.47864e-06
2.33645e-06
1.15513e-06
-2.41799e-07
-1.1161e-06
-1.22874e-06
-8.73428e-07
-3.18015e-07
2.51474e-07
6.82262e-07
8.29597e-07
5.24367e-07
-1.41509e-07
-6.69625e-07
-4.77797e-07
4.21824e-07
1.19336e-06
8.35471e-07
-6.87153e-07
-2.05996e-06
-1.80949e-06
1.3271e-07
2.39496e-06
3.24118e-06
1.77661e-06
-1.04594e-06
-3.04357e-06
-2.90333e-06
-1.04052e-06
1.17213e-06
2.46192e-06
2.32946e-06
1.15932e-06
-2.30678e-07
-1.10504e-06
-1.22257e-06
-8.72806e-07
-3.20168e-07
2.46095e-07
6.75479e-07
8.2375e-07
5.2269e-07
-1.37086e-07
-6.6195e-07
-4.74054e-07
4.16591e-07
1.18278e-06
8.30705e-07
-6.77769e-07
-2.04205e-06
-1.79955e-06
1.2385e-07
2.37142e-06
3.21857e-06
1.77258e-06
-1.02616e-06
-3.01475e-06
-2.88677e-06
-1.04513e-06
1.15267e-06
2.44054e-06
2.31708e-06
1.16015e-06
-2.19742e-07
-1.09181e-06
-1.21357e-06
-8.69884e-07
-3.21081e-07
2.40751e-07
6.67588e-07
8.16049e-07
5.19432e-07
-1.32734e-07
-6.52593e-07
-4.68392e-07
4.11256e-07
1.16942e-06
8.22789e-07
-6.68256e-07
-2.01969e-06
-1.78398e-06
1.17111e-07
2.34417e-06
3.1883e-06
1.76237e-06
-1.00624e-06
-2.97979e-06
-2.86272e-06
-1.04551e-06
1.13244e-06
2.41468e-06
2.29945e-06
1.15767e-06
-2.09063e-07
-1.07652e-06
-1.20181e-06
-8.64696e-07
-3.20764e-07
2.35466e-07
6.58639e-07
8.06563e-07
5.14648e-07
-1.28461e-07
-6.41635e-07
-4.60901e-07
4.05816e-07
1.15337e-06
8.11865e-07
-6.58607e-07
-1.99304e-06
-1.76301e-06
1.12435e-07
2.31337e-06
3.15067e-06
1.74623e-06
-9.8624e-07
-2.93897e-06
-2.83143e-06
-1.04175e-06
1.11152e-06
2.38453e-06
2.27676e-06
1.15196e-06
-1.98684e-07
-1.05928e-06
-1.18742e-06
-8.57297e-07
-3.19237e-07
2.30259e-07
6.48685e-07
7.95367e-07
5.08397e-07
-1.24274e-07
-6.29158e-07
-4.51668e-07
4.00275e-07
1.13478e-06
7.98075e-07
-6.48824e-07
-1.96229e-06
-1.73683e-06
1.09761e-07
2.27918e-06
3.10599e-06
1.72439e-06
-9.66189e-07
-2.89256e-06
-2.79318e-06
-1.03393e-06
1.09001e-06
2.35028e-06
2.2492e-06
1.14311e-06
-1.88643e-07
-1.04021e-06
-1.17048e-06
-8.47751e-07
-3.16513e-07
2.25153e-07
6.37781e-07
7.82532e-07
5.00733e-07
-1.20185e-07
-6.15245e-07
-4.40777e-07
3.94641e-07
1.11376e-06
7.81554e-07
-6.38921e-07
-1.92761e-06
-1.70565e-06
1.09044e-07
2.24178e-06
3.05457e-06
1.69707e-06
-9.46156e-07
-2.84085e-06
-2.74821e-06
-1.02215e-06
1.068e-06
2.31214e-06
2.21696e-06
1.1312e-06
-1.7898e-07
-1.01941e-06
-1.15111e-06
-8.3612e-07
-3.12605e-07
2.20175e-07
6.25985e-07
7.68134e-07
4.91707e-07
-1.16212e-07
-5.9998e-07
-4.28305e-07
3.88933e-07
1.09044e-06
7.62424e-07
-6.28929e-07
-1.88921e-06
-1.66966e-06
1.10256e-07
2.20134e-06
2.99672e-06
1.66448e-06
-9.2623e-07
-2.78413e-06
-2.6968e-06
-1.00647e-06
1.04561e-06
2.27031e-06
2.18022e-06
1.11631e-06
-1.69751e-07
-9.97019e-07
-1.12941e-06
-8.22463e-07
-3.07518e-07
2.15357e-07
6.13356e-07
7.52244e-07
4.81364e-07
-1.1238e-07
-5.83449e-07
-4.14324e-07
3.83178e-07
1.06495e-06
7.40799e-07
-6.18892e-07
-1.84728e-06
-1.62905e-06
1.1339e-07
2.15807e-06
2.93275e-06
1.62678e-06
-9.06528e-07
-2.72271e-06
-2.63919e-06
-9.86955e-07
1.02297e-06
2.22501e-06
2.13917e-06
1.09851e-06
-1.61018e-07
-9.73147e-07
-1.1055e-06
-8.06837e-07
-3.01253e-07
2.10736e-07
5.99961e-07
7.34935e-07
4.69744e-07
-1.08719e-07
-5.65739e-07
-3.98902e-07
3.7741e-07
1.03742e-06
7.1678e-07
-6.0887e-07
-1.80202e-06
-1.58398e-06
1.18455e-07
2.1122e-06
2.86296e-06
1.58414e-06
-8.8719e-07
-2.65689e-06
-2.57562e-06
-9.6363e-07
1.00021e-06
2.17645e-06
2.09398e-06
1.07784e-06
-1.52857e-07
-9.47927e-07
-1.07947e-06
-7.89293e-07
-2.93807e-07
2.06354e-07
5.85866e-07
7.1628e-07
4.56884e-07
-1.05263e-07
-5.4694e-07
-3.82103e-07
3.7167e-07
1.00799e-06
6.90466e-07
-5.98934e-07
-1.75364e-06
-1.53462e-06
1.25477e-07
2.06395e-06
2.78766e-06
1.53669e-06
-8.68376e-07
-2.58701e-06
-2.50633e-06
-9.36521e-07
9.77511e-07
2.12486e-06
2.04483e-06
1.05434e-06
-1.45353e-07
-9.21496e-07
-1.05144e-06
-7.6988e-07
-2.85174e-07
2.02257e-07
5.71144e-07
6.96354e-07
4.42822e-07
-1.02051e-07
-5.27145e-07
-3.63992e-07
3.66001e-07
9.76778e-07
6.6195e-07
-5.89161e-07
-1.70235e-06
-1.48114e-06
1.34489e-07
2.01358e-06
2.70715e-06
1.48456e-06
-8.50264e-07
-2.5134e-06
-2.43157e-06
-9.05646e-07
9.55028e-07
2.07049e-06
1.99188e-06
1.02806e-06
-1.38599e-07
-8.93994e-07
-1.02152e-06
-7.48649e-07
-2.75346e-07
1.98492e-07
5.55869e-07
6.75234e-07
4.27594e-07
-9.91234e-08
-5.06451e-07
-3.44632e-07
3.60451e-07
9.43941e-07
6.31327e-07
-5.79637e-07
-1.64838e-06
-1.42372e-06
1.45531e-07
1.96132e-06
2.62175e-06
1.42786e-06
-8.33041e-07
-2.43641e-06
-2.35157e-06
-8.71018e-07
9.32946e-07
2.01357e-06
1.93532e-06
9.9902e-07
-1.32695e-07
-8.6557e-07
-9.89822e-07
-7.25649e-07
-2.64315e-07
1.95112e-07
5.40119e-07
6.53e-07
4.11236e-07
-9.65238e-08
-4.84958e-07
-3.24092e-07
3.55072e-07
9.0962e-07
5.98693e-07
-5.70449e-07
-1.59196e-06
-1.36253e-06
1.58646e-07
1.90746e-06
2.53178e-06
1.36673e-06
-8.16907e-07
-2.3564e-06
-2.2666e-06
-8.3265e-07
9.11455e-07
1.95436e-06
1.87533e-06
9.67257e-07
-1.27744e-07
-8.36379e-07
-9.56465e-07
-7.00934e-07
-2.52072e-07
1.92169e-07
5.23976e-07
6.29736e-07
3.93787e-07
-9.42968e-08
-4.6277e-07
-3.0244e-07
3.49914e-07
8.73965e-07
5.64148e-07
-5.61691e-07
-1.53333e-06
-1.29775e-06
1.73877e-07
1.85227e-06
2.43758e-06
1.30129e-06
-8.02065e-07
-2.27375e-06
-2.17694e-06
-7.90559e-07
8.90751e-07
1.89313e-06
1.8121e-06
9.32804e-07
-1.23855e-07
-8.06578e-07
-9.21575e-07
-6.74558e-07
-2.38613e-07
1.89718e-07
5.07526e-07
6.05529e-07
3.75289e-07
-9.24878e-08
-4.39994e-07
-2.79751e-07
3.4503e-07
8.37135e-07
5.27797e-07
-5.53457e-07
-1.47274e-06
-1.22958e-06
1.91266e-07
1.79604e-06
2.3395e-06
1.23168e-06
-7.88725e-07
-2.18885e-06
-2.08285e-06
-7.44768e-07
8.71036e-07
1.83015e-06
1.74582e-06
8.95698e-07
-1.21135e-07
-7.76336e-07
-8.85283e-07
-6.46583e-07
-2.23933e-07
1.87814e-07
4.90856e-07
5.80472e-07
3.55787e-07
-9.11426e-08
-4.16744e-07
-2.56101e-07
3.40474e-07
7.99292e-07
4.89753e-07
-5.45842e-07
-1.41046e-06
-1.15824e-06
2.10848e-07
1.73905e-06
2.23791e-06
1.15804e-06
-7.77096e-07
-2.10211e-06
-1.98467e-06
-6.95312e-07
8.52514e-07
1.76572e-06
1.67672e-06
8.55985e-07
-1.19696e-07
-7.45821e-07
-8.47727e-07
-6.17073e-07
-2.08031e-07
1.86511e-07
4.74058e-07
5.54661e-07
3.35329e-07
-9.03062e-08
-3.93136e-07
-2.31574e-07
3.36297e-07
7.60604e-07
4.50134e-07
-5.38938e-07
-1.34675e-06
-1.08395e-06
2.32654e-07
1.68163e-06
2.13319e-06
1.08055e-06
-7.67385e-07
-2.01394e-06
-1.88269e-06
-6.42236e-07
8.35391e-07
1.70014e-06
1.605e-06
8.13716e-07
-1.19646e-07
-7.15211e-07
-8.09053e-07
-5.86101e-07
-1.90911e-07
1.85865e-07
4.57224e-07
5.28198e-07
3.13969e-07
-9.00221e-08
-3.69288e-07
-2.06258e-07
3.32551e-07
7.21245e-07
4.09069e-07
-5.32838e-07
-1.2819e-06
-1.00694e-06
2.56706e-07
1.62406e-06
2.02574e-06
9.9938e-07
-7.59796e-07
-1.92478e-06
-1.77729e-06
-5.85601e-07
8.19872e-07
1.63371e-06
1.53092e-06
7.68955e-07
-1.21091e-07
-6.84685e-07
-7.69412e-07
-5.53746e-07
-1.72582e-07
1.85928e-07
4.40452e-07
5.0119e-07
2.91765e-07
-9.03322e-08
-3.45323e-07
-1.80246e-07
3.29283e-07
6.81394e-07
3.66694e-07
-5.27628e-07
-1.21619e-06
-9.27471e-07
2.83014e-07
1.56668e-06
1.91598e-06
9.14729e-07
-7.54523e-07
-1.83506e-06
-1.66881e-06
-5.25485e-07
8.06161e-07
1.56675e-06
1.45472e-06
7.21775e-07
-1.24132e-07
-6.54427e-07
-7.28966e-07
-5.20093e-07
-1.53059e-07
1.86752e-07
4.23839e-07
4.73746e-07
2.68782e-07
-9.12752e-08
-3.21367e-07
-1.53639e-07
3.26539e-07
6.41234e-07
3.23156e-07
-5.23392e-07
-1.14993e-06
-8.4582e-07
3.11577e-07
1.50979e-06
1.80433e-06
8.2682e-07
-7.5175e-07
-1.74525e-06
-1.55765e-06
-4.61988e-07
7.94453e-07
1.4996e-06
1.37667e-06
6.72264e-07
-1.28866e-07
-6.24622e-07
-6.87883e-07
-4.85238e-07
-1.32363e-07
1.88385e-07
4.07483e-07
4.45983e-07
2.4509e-07
-9.28865e-08
-2.97545e-07
-1.26542e-07
3.24361e-07
6.0095e-07
2.78611e-07
-5.20204e-07
-1.08342e-06
-7.62275e-07
3.4238e-07
1.4537e-06
1.69126e-06
7.35897e-07
-7.51649e-07
-1.65578e-06
-1.44423e-06
-3.95228e-07
7.84939e-07
1.43258e-06
1.29706e-06
6.20522e-07
-1.3538e-07
-5.95458e-07
-6.46338e-07
-4.49285e-07
-1.10522e-07
1.90873e-07
3.91485e-07
4.18019e-07
2.20764e-07
-9.51969e-08
-2.73986e-07
-9.90646e-08
3.22785e-07
5.60729e-07
2.33223e-07
-5.18133e-07
-1.01696e-06
-6.7714e-07
3.75392e-07
1.39874e-06
1.57722e-06
6.42227e-07
-7.54372e-07
-1.56714e-06
-1.32897e-06
-3.25349e-07
7.77797e-07
1.36605e-06
1.21617e-06
5.66669e-07
-1.43753e-07
-5.67121e-07
-6.04512e-07
-4.12347e-07
-8.75727e-08
1.94257e-07
3.75944e-07
3.8998e-07
1.95886e-07
-9.8232e-08
-2.50816e-07
-7.13236e-08
3.21841e-07
5.20761e-07
1.87166e-07
-5.17234e-07
-9.5086e-07
-5.90738e-07
4.10564e-07
1.34521e-06
1.46269e-06
5.46101e-07
-7.60051e-07
-1.47977e-06
-1.21234e-06
-2.52519e-07
7.73193e-07
1.30035e-06
1.13432e-06
5.10837e-07
-1.54054e-07
-5.39798e-07
-5.62596e-07
-3.74545e-07
-6.35597e-08
1.98572e-07
3.60958e-07
3.61989e-07
1.70545e-07
-1.02012e-07
-2.28162e-07
-4.344e-08
3.21554e-07
4.81233e-07
1.40625e-07
-5.17557e-07
-8.85437e-07
-5.03403e-07
4.47831e-07
1.29341e-06
1.34815e-06
4.47835e-07
-7.68798e-07
-1.39414e-06
-1.0948e-06
-1.76931e-07
7.7128e-07
1.23582e-06
1.05184e-06
4.53178e-07
-1.66338e-07
-5.13671e-07
-5.20781e-07
-3.36011e-07
-3.85371e-08
2.03848e-07
3.46625e-07
3.34177e-07
1.44834e-07
-1.06549e-07
-2.06146e-07
-1.55389e-08
3.21941e-07
4.42329e-07
9.37919e-08
-5.19133e-07
-8.20993e-07
-4.15484e-07
4.87106e-07
1.24363e-06
1.23408e-06
3.47769e-07
-7.80694e-07
-1.31069e-06
-9.76856e-07
-9.88061e-08
7.72188e-07
1.17281e-06
9.69056e-07
3.93861e-07
-1.80644e-07
-4.88917e-07
-4.79267e-07
-2.96886e-07
-1.25682e-08
2.1011e-07
3.33037e-07
3.06674e-07
1.18854e-07
-1.11849e-07
-1.8489e-07
1.22502e-08
3.2301e-07
4.0423e-07
4.68524e-08
-5.21983e-07
-7.57829e-07
-3.27342e-07
5.28282e-07
1.19614e-06
1.121e-06
2.46268e-07
-7.95795e-07
-1.22988e-06
-8.59004e-07
-1.83932e-08
7.7603e-07
1.11165e-06
8.86322e-07
3.33075e-07
-1.96999e-07
-4.65709e-07
-4.38256e-07
-2.57319e-07
1.4274e-08
2.17374e-07
3.20287e-07
2.79611e-07
9.27098e-08
-1.1791e-07
-1.64508e-07
3.97952e-08
3.24761e-07
3.67111e-07
-8.66955e-12
-5.26113e-07
-6.96238e-07
-2.39346e-07
5.71233e-07
1.1512e-06
1.00938e-06
1.43719e-07
-8.14123e-07
-1.15211e-06
-7.41765e-07
6.40319e-08
7.82893e-07
1.05268e-06
8.03994e-07
2.71025e-07
-2.15409e-07
-4.44209e-07
-3.97951e-07
-2.17467e-07
4.19064e-08
2.25647e-07
3.08459e-07
2.53119e-07
6.65132e-08
-1.2472e-07
-1.4511e-07
6.69614e-08
3.27184e-07
3.31141e-07
-4.65243e-08
-5.31511e-07
-6.365e-07
-1.51873e-07
6.15806e-07
1.10905e-06
8.99718e-07
4.05303e-08
-8.35665e-07
-1.0778e-06
-6.25665e-07
1.48165e-07
7.92838e-07
9.96229e-07
7.22436e-07
2.07936e-07
-2.35863e-07
-4.24571e-07
-3.58557e-07
-1.77498e-07
7.02355e-08
2.34929e-07
2.97633e-07
2.27329e-07
4.03798e-08
-1.32259e-07
-1.26797e-07
9.36128e-08
3.3026e-07
2.96477e-07
-9.25416e-08
-5.3815e-07
-5.78882e-07
-6.5305e-08
6.61831e-07
1.06989e-06
7.92502e-07
-6.28693e-08
-8.60374e-07
-1.00734e-06
-5.11237e-07
2.33675e-07
8.05898e-07
9.42596e-07
6.42016e-07
1.44051e-07
-2.58328e-07
-4.06934e-07
-3.20277e-07
-1.37584e-07
9.91578e-08
2.4521e-07
2.87883e-07
2.02368e-07
1.44295e-08
-1.40497e-07
-1.09663e-07
1.19613e-07
3.33958e-07
2.63268e-07
-1.37829e-07
-5.45982e-07
-5.23635e-07
1.9975e-08
7.09111e-07
1.03391e-06
6.88202e-07
-1.66034e-07
-8.88164e-07
-9.41057e-07
-3.99013e-07
3.20204e-07
8.22074e-07
8.92073e-07
5.63108e-07
7.96299e-08
-2.82752e-07
-3.91425e-07
-2.83312e-07
-9.79057e-08
1.2856e-07
2.56468e-07
2.79274e-07
1.78361e-07
-1.1214e-08
-1.49393e-07
-9.37911e-08
1.44827e-07
3.38238e-07
2.31647e-07
-1.82159e-07
-5.54945e-07
-4.70988e-07
1.03584e-07
7.57429e-07
1.00127e-06
5.87274e-07
-2.68502e-07
-9.18909e-07
-8.79285e-07
-2.89522e-07
4.07369e-07
8.41334e-07
8.4493e-07
4.8608e-07
1.49485e-08
-3.09059e-07
-3.78154e-07
-2.47858e-07
-5.86471e-08
1.58318e-07
2.68674e-07
2.71863e-07
1.55429e-07
-3.64244e-08
-1.58897e-07
-7.92535e-08
1.6912e-07
3.43049e-07
2.01737e-07
-2.25321e-07
-5.64956e-07
-4.21148e-07
1.85143e-07
8.06547e-07
9.72088e-07
4.90156e-07
-3.69802e-07
-9.52445e-07
-8.22302e-07
-1.83287e-07
4.94764e-07
8.6361e-07
8.01413e-07
4.113e-07
-4.97017e-08
-3.37149e-07
-3.67213e-07
-2.14104e-07
-1.99978e-08
1.883e-07
2.81784e-07
2.65698e-07
1.33686e-07
-6.10737e-08
-1.68951e-07
-6.61108e-08
1.92362e-07
3.48328e-07
1.73643e-07
-2.67109e-07
-5.75916e-07
-3.74296e-07
2.64281e-07
8.56205e-07
9.46447e-07
3.97259e-07
-4.69451e-07
-9.88566e-07
-7.70344e-07
-8.08144e-08
5.81963e-07
8.88801e-07
7.61737e-07
3.39128e-07
-1.14016e-07
-3.66902e-07
-3.58674e-07
-1.82233e-07
1.78506e-08
2.18363e-07
2.95745e-07
2.60813e-07
1.1324e-07
-8.50329e-08
-1.79482e-07
-5.44105e-08
2.14428e-07
3.54006e-07
1.47453e-07
-3.07317e-07
-5.87706e-07
-3.30588e-07
3.40636e-07
9.06124e-07
9.24397e-07
3.08969e-07
-5.66965e-07
-1.02703e-06
-7.23606e-07
1.74041e-08
6.68518e-07
9.16764e-07
7.26088e-07
2.69914e-07
-1.7768e-07
-3.98171e-07
-3.52587e-07
-1.52413e-07
5.47051e-08
2.48357e-07
3.10492e-07
2.57234e-07
9.41902e-08
-1.08174e-07
-1.90413e-07
-4.4186e-08
2.35197e-07
3.6e-07
1.23239e-07
-3.4575e-07
-6.00194e-07
-2.90146e-07
4.13864e-07
9.56009e-07
9.05951e-07
2.25637e-07
-6.61858e-07
-1.06755e-06
-6.82229e-07
1.10902e-07
7.5397e-07
9.47322e-07
6.94618e-07
2.03993e-07
-2.40367e-07
-4.30788e-07
-3.48979e-07
-1.24803e-07
9.03732e-08
2.78127e-07
3.25947e-07
2.54974e-07
7.66277e-08
-1.30369e-07
-2.01655e-07
-3.54564e-08
2.54557e-07
3.6622e-07
1.01051e-07
-3.8222e-07
-6.1323e-07
-2.53065e-07
4.83634e-07
1.00555e-06
8.91077e-07
1.47578e-07
-7.53649e-07
-1.10981e-06
-6.46306e-07
1.9924e-07
8.37848e-07
9.8026e-07
6.67439e-07
1.41683e-07
-3.01748e-07
-4.64562e-07
-3.47852e-07
-9.95445e-08
1.24665e-07
3.07508e-07
3.42022e-07
2.54032e-07
6.06325e-08
-1.51494e-07
-2.13111e-07
-2.82256e-08
2.72405e-07
3.72569e-07
8.09234e-08
-4.16553e-07
-6.2665e-07
-2.19404e-07
5.49639e-07
1.05442e-06
8.79707e-07
7.50683e-08
-8.41866e-07
-1.15346e-06
-6.15874e-07
2.82015e-07
9.19673e-07
1.01532e-06
6.44626e-07
8.32805e-08
-3.61486e-07
-4.99279e-07
-3.49185e-07
-7.67641e-08
1.57394e-07
3.36333e-07
3.58618e-07
2.54393e-07
4.6273e-08
-1.7143e-07
-2.24676e-07
-2.24819e-08
2.88648e-07
3.78943e-07
6.28682e-08
-4.48586e-07
-6.4028e-07
-1.8919e-07
6.11598e-07
1.10228e-06
8.7173e-07
8.33805e-09
-9.2605e-07
-1.19811e-06
-5.90915e-07
3.5886e-07
9.98964e-07
1.05223e-06
6.26209e-07
2.90568e-08
-4.19248e-07
-5.34705e-07
-3.52927e-07
-5.65682e-08
1.88381e-07
3.6443e-07
3.75624e-07
2.56031e-07
3.36054e-08
-1.90062e-07
-2.3624e-07
-1.81983e-08
3.03203e-07
3.85232e-07
4.68781e-08
-4.78172e-07
-6.53933e-07
-1.62416e-07
6.69256e-07
1.14881e-06
8.66996e-07
-5.24274e-08
-1.00576e-06
-1.24336e-06
-5.71353e-07
4.29454e-07
1.07524e-06
1.09065e-06
6.12178e-07
-2.07458e-08
-4.74702e-07
-5.70588e-07
-3.59004e-07
-3.90426e-08
2.17455e-07
3.91627e-07
3.9292e-07
2.58904e-07
2.2672e-08
-2.07281e-07
-2.47687e-07
-1.53322e-08
3.16001e-07
3.91323e-07
3.29259e-08
-5.05184e-07
-6.67417e-07
-1.3904e-07
7.22388e-07
1.19365e-06
8.65317e-07
-1.07092e-07
-1.08059e-06
-1.28876e-06
-5.57057e-07
4.93524e-07
1.14804e-06
1.13023e-06
6.02473e-07
-6.59173e-08
-5.27522e-07
-6.06659e-07
-3.67312e-07
-2.42509e-08
2.44456e-07
4.1775e-07
4.10375e-07
2.62955e-07
1.35012e-08
-2.22989e-07
-2.58898e-07
-1.38256e-08
3.26989e-07
3.971e-07
2.09648e-08
-5.29512e-07
-6.80534e-07
-1.18988e-07
7.70808e-07
1.23646e-06
8.66467e-07
-1.55573e-07
-1.15014e-06
-1.33387e-06
-5.47838e-07
5.50849e-07
1.21689e-06
1.17059e-06
5.96993e-07
-1.06283e-07
-5.77395e-07
-6.42634e-07
-3.77722e-07
-1.22324e-08
2.69234e-07
4.42628e-07
4.27853e-07
2.68116e-07
6.10614e-09
-2.37097e-07
-2.69749e-07
-1.3606e-08
3.36125e-07
4.02447e-07
1.09291e-08
-5.51067e-07
-6.93083e-07
-1.02151e-07
8.14362e-07
1.27692e-06
8.70186e-07
-1.97836e-07
-1.21408e-06
-1.37822e-06
-5.43455e-07
6.01264e-07
1.28138e-06
1.21133e-06
5.95587e-07
-1.41708e-07
-6.24021e-07
-6.7822e-07
-3.90077e-07
-3.00109e-09
2.91658e-07
4.66095e-07
4.45208e-07
2.74302e-07
4.84365e-10
-2.49525e-07
-2.80119e-07
-1.45869e-08
3.43387e-07
4.07251e-07
2.73551e-09
-5.69782e-07
-7.04866e-07
-8.83908e-08
8.52937e-07
1.3147e-06
8.76182e-07
-2.33906e-07
-1.27207e-06
-1.42134e-06
-5.43612e-07
6.44667e-07
1.34107e-06
1.25203e-06
5.98062e-07
-1.72098e-07
-6.67118e-07
-7.13112e-07
-4.04199e-07
3.45529e-09
3.11611e-07
4.87988e-07
4.62291e-07
2.81419e-07
-3.38243e-09
-2.60208e-07
-2.89884e-07
-1.66689e-08
3.48767e-07
4.11401e-07
-3.71607e-09
-5.85613e-07
-7.15686e-07
-7.75408e-08
8.86461e-07
1.34949e-06
8.84137e-07
-2.63858e-07
-1.32386e-06
-1.46275e-06
-5.47966e-07
6.81013e-07
1.3956e-06
1.29223e-06
6.0418e-07
-1.97403e-07
-7.06428e-07
-7.47003e-07
-4.19882e-07
7.17604e-09
3.28994e-07
5.08156e-07
4.78947e-07
2.89356e-07
-5.52873e-09
-2.69092e-07
-2.98926e-07
-1.97409e-08
3.52275e-07
4.14791e-07
-8.54058e-09
-5.98542e-07
-7.25355e-07
-6.9407e-08
9.14903e-07
1.38099e-06
8.93706e-07
-2.87821e-07
-1.36923e-06
-1.502e-06
-5.56128e-07
7.10325e-07
1.44461e-06
1.33149e-06
6.13661e-07
-2.17617e-07
-7.41719e-07
-7.79584e-07
-4.36901e-07
8.22787e-09
3.43733e-07
5.26455e-07
4.95022e-07
2.97996e-07
-6.00511e-09
-2.76139e-07
-3.07129e-07
-2.36814e-08
3.5394e-07
4.17324e-07
-1.18662e-08
-6.08571e-07
-7.33694e-07
-6.37723e-08
9.38275e-07
1.40895e-06
9.04529e-07
-3.05977e-07
-1.408e-06
-1.53863e-06
-5.6767e-07
7.32687e-07
1.48782e-06
1.36937e-06
6.26186e-07
-2.32782e-07
-7.72788e-07
-8.1055e-07
-4.5501e-07
6.70483e-09
3.55771e-07
5.42756e-07
5.10358e-07
3.07207e-07
-4.87807e-09
-2.81327e-07
-3.14385e-07
-2.83606e-08
3.53807e-07
4.18911e-07
-1.38322e-08
-6.15732e-07
-7.40537e-07
-6.03996e-08
9.56633e-07
1.43313e-06
9.1623e-07
-3.18557e-07
-1.44006e-06
-1.5722e-06
-5.8213e-07
7.4825e-07
1.52496e-06
1.4054e-06
6.414e-07
-2.42987e-07
-7.99467e-07
-8.39602e-07
-4.73948e-07
2.72793e-09
3.65079e-07
5.56942e-07
5.24801e-07
3.16852e-07
-2.22954e-09
-2.84649e-07
-3.20593e-07
-3.36415e-08
3.51937e-07
4.19475e-07
-1.45869e-08
-6.20076e-07
-7.45734e-07
-5.90357e-08
9.70072e-07
1.45331e-06
9.28424e-07
-3.2584e-07
-1.46535e-06
-1.6023e-06
-5.99017e-07
7.57225e-07
1.55583e-06
1.43916e-06
6.58917e-07
-2.4837e-07
-8.21624e-07
-8.66452e-07
-4.93438e-07
-3.5557e-09
3.71651e-07
5.68916e-07
5.38203e-07
3.26787e-07
1.84381e-09
-2.86115e-07
-3.25662e-07
-3.93826e-08
3.4841e-07
4.1895e-07
-1.4285e-08
-6.21681e-07
-7.49154e-07
-5.94149e-08
9.78731e-07
1.46934e-06
9.40724e-07
-3.2815e-07
-1.48387e-06
-1.62856e-06
-6.1782e-07
7.59886e-07
1.5803e-06
1.47021e-06
6.78325e-07
-2.49113e-07
-8.39168e-07
-8.90829e-07
-5.13196e-07
-1.19741e-08
3.75506e-07
5.78597e-07
5.50419e-07
3.36859e-07
7.23148e-09
-2.85753e-07
-3.29512e-07
-4.54396e-08
3.4332e-07
4.17286e-07
-1.30852e-08
-6.20645e-07
-7.50684e-07
-6.12636e-08
9.82787e-07
1.48107e-06
9.52748e-07
-3.25848e-07
-1.49566e-06
-1.65063e-06
-6.38014e-07
7.56564e-07
1.59828e-06
1.49816e-06
6.99189e-07
-2.45444e-07
-8.52048e-07
-9.1248e-07
-5.32929e-07
-2.23322e-08
3.7669e-07
5.85925e-07
5.61314e-07
3.46916e-07
1.38103e-08
-2.83606e-07
-3.32078e-07
-5.16679e-08
3.36777e-07
4.14447e-07
-1.11474e-08
-6.1709e-07
-7.50235e-07
-6.43045e-08
9.82454e-07
1.48842e-06
9.64122e-07
-3.19333e-07
-1.50086e-06
-1.66822e-06
-6.59068e-07
7.47644e-07
1.60974e-06
1.52263e-06
7.21061e-07
-2.37636e-07
-8.60257e-07
-9.31178e-07
-5.52342e-07
-3.44138e-08
3.75277e-07
5.90862e-07
5.70763e-07
3.56803e-07
2.14458e-08
-2.79735e-07
-3.33307e-07
-5.79243e-08
3.28904e-07
4.10415e-07
-8.63061e-09
-6.11155e-07
-7.47744e-07
-6.82611e-08
9.77978e-07
1.49134e-06
9.74486e-07
-3.09029e-07
-1.49962e-06
-1.68108e-06
-6.80453e-07
7.33558e-07
1.61473e-06
1.54328e-06
7.43482e-07
-2.25997e-07
-8.63835e-07
-9.46724e-07
-5.71141e-07
-4.79844e-08
3.71363e-07
5.93394e-07
5.78656e-07
3.66366e-07
2.99938e-08
-2.74219e-07
-3.33163e-07
-6.40699e-08
3.19833e-07
4.05186e-07
-5.68955e-09
-6.02997e-07
-7.4317e-07
-7.28618e-08
9.69638e-07
1.48984e-06
9.83502e-07
-2.95387e-07
-1.49219e-06
-1.68902e-06
-7.01651e-07
7.1478e-07
1.61335e-06
1.55984e-06
7.65995e-07
-2.10877e-07
-8.62866e-07
-9.58947e-07
-5.8904e-07
-6.27939e-08
3.65074e-07
5.93528e-07
5.84895e-07
3.75454e-07
3.93023e-08
-2.67151e-07
-3.31623e-07
-6.9972e-08
3.09709e-07
3.98775e-07
-2.47275e-09
-5.92789e-07
-7.365e-07
-7.78445e-08
9.57736e-07
1.48394e-06
9.90861e-07
-2.78874e-07
-1.47883e-06
-1.69188e-06
-7.2216e-07
6.91823e-07
1.60578e-06
1.57204e-06
7.88143e-07
-1.92653e-07
-8.57478e-07
-9.67715e-07
-6.05763e-07
-7.85801e-08
3.56556e-07
5.91298e-07
5.894e-07
3.83922e-07
4.92134e-08
-2.58638e-07
-3.28686e-07
-7.55063e-08
2.98683e-07
3.91215e-07
8.80107e-10
-5.80716e-07
-7.27746e-07
-8.29602e-08
9.42597e-07
1.47374e-06
9.96281e-07
-2.59965e-07
-1.45989e-06
-1.68959e-06
-7.41505e-07
6.65224e-07
1.59223e-06
1.5797e-06
8.09485e-07
-1.71732e-07
-8.47846e-07
-9.72931e-07
-6.21046e-07
-9.50719e-08
3.45981e-07
5.86761e-07
5.9211e-07
3.91633e-07
5.95655e-08
-2.48803e-07
-3.24363e-07
-8.05588e-08
2.86912e-07
3.82553e-07
4.24032e-09
-5.66972e-07
-7.16948e-07
-8.79772e-08
9.24561e-07
1.45937e-06
9.9952e-07
-2.39139e-07
-1.43573e-06
-1.68212e-06
-7.59242e-07
6.35542e-07
1.57301e-06
1.58267e-06
8.29599e-07
-1.48538e-07
-8.34185e-07
-9.74538e-07
-6.34647e-07
-1.11994e-07
3.3354e-07
5.8e-07
5.92981e-07
3.98459e-07
7.01953e-08
-2.3778e-07
-3.18687e-07
-8.50279e-08
2.74553e-07
3.72854e-07
7.49207e-09
-5.51757e-07
-7.04169e-07
-9.26837e-08
9.0398e-07
1.44101e-06
1.00037e-06
-2.16871e-07
-1.40678e-06
-1.66951e-06
-7.74969e-07
6.03347e-07
1.54845e-06
1.58087e-06
8.48088e-07
-1.23514e-07
-8.16751e-07
-9.72521e-07
-6.46347e-07
-1.2907e-07
3.1944e-07
5.71118e-07
5.91993e-07
4.04285e-07
8.09406e-08
-2.25712e-07
-3.11706e-07
-8.88256e-08
2.61767e-07
3.62198e-07
1.05341e-08
-5.35277e-07
-6.89496e-07
-9.68914e-08
8.81211e-07
1.41886e-06
9.98681e-07
-1.93624e-07
-1.37348e-06
-1.65186e-06
-7.88327e-07
5.69213e-07
1.51894e-06
1.57429e-06
8.64588e-07
-9.71058e-08
-7.95837e-07
-9.66906e-07
-6.5595e-07
-1.46027e-07
3.03908e-07
5.60245e-07
5.89147e-07
4.09011e-07
9.16424e-08
-2.12751e-07
-3.03483e-07
-9.18794e-08
2.48709e-07
3.50676e-07
1.32811e-08
-5.17737e-07
-6.73039e-07
-1.00437e-07
8.56613e-07
1.39316e-06
9.94326e-07
-1.69845e-07
-1.33631e-06
-1.62932e-06
-7.99009e-07
5.33707e-07
1.48494e-06
1.56296e-06
8.78776e-07
-6.97645e-08
-7.71767e-07
-9.57762e-07
-6.63295e-07
-1.62601e-07
2.87179e-07
5.47528e-07
5.84464e-07
4.12551e-07
1.02147e-07
-1.99057e-07
-2.94098e-07
-9.41329e-08
2.35533e-07
3.38393e-07
1.56643e-08
-4.99338e-07
-6.54927e-07
-1.03186e-07
8.30537e-07
1.36421e-06
9.8724e-07
-1.45954e-07
-1.29577e-06
-1.60209e-06
-8.0676e-07
4.97381e-07
1.44689e-06
1.54699e-06
8.90369e-07
-4.19328e-08
-7.44894e-07
-9.452e-07
-6.68251e-07
-1.7854e-07
2.69497e-07
5.33134e-07
5.77988e-07
4.14836e-07
1.12309e-07
-1.84792e-07
-2.83646e-07
-9.55467e-08
2.22384e-07
3.25463e-07
1.76324e-08
-4.80277e-07
-6.35308e-07
-1.05029e-07
8.03328e-07
1.3323e-06
9.77401e-07
-1.22342e-07
-1.25236e-06
-1.57045e-06
-8.11387e-07
4.60765e-07
1.40532e-06
1.52653e-06
8.99136e-07
-1.40408e-08
-7.15593e-07
-9.29369e-07
-6.70723e-07
-1.93605e-07
2.51114e-07
5.17247e-07
5.69787e-07
4.15819e-07
1.21994e-07
-1.70118e-07
-2.72234e-07
-9.6099e-08
2.09396e-07
3.12006e-07
1.91515e-08
-4.60743e-07
-6.14343e-07
-1.05889e-07
7.75315e-07
1.29775e-06
9.64832e-07
-9.93641e-08
-1.2066e-06
-1.53469e-06
-8.12753e-07
4.24359e-07
1.36074e-06
1.5018e-06
9.04898e-07
1.35015e-08
-6.84255e-07
-9.10458e-07
-6.70652e-07
-2.07582e-07
2.32279e-07
5.00065e-07
5.59946e-07
4.15469e-07
1.31078e-07
-1.552e-07
-2.5998e-07
-9.57851e-08
1.96695e-07
2.98149e-07
2.02045e-08
-4.40914e-07
-5.92204e-07
-1.05716e-07
7.46806e-07
1.26091e-06
9.49601e-07
-7.73345e-08
-1.159e-06
-1.49517e-06
-8.10782e-07
3.88624e-07
1.31368e-06
1.47306e-06
9.07529e-07
4.03107e-08
-6.51281e-07
-8.8869e-07
-6.68018e-07
-2.20277e-07
2.13239e-07
4.81795e-07
5.48572e-07
4.13777e-07
1.39452e-07
-1.40196e-07
-2.4701e-07
-9.46175e-08
1.8439e-07
2.8402e-07
2.0791e-08
-4.20954e-07
-5.69073e-07
-1.04488e-07
7.18089e-07
1.22213e-06
9.31818e-07
-5.65246e-08
-1.11006e-06
-1.45228e-06
-8.05461e-07
3.53977e-07
1.26469e-06
1.44063e-06
9.06961e-07
6.60361e-08
-6.17077e-07
-8.6432e-07
-6.62839e-07
-2.31523e-07
1.94235e-07
4.62652e-07
5.35789e-07
4.10754e-07
1.47024e-07
-1.25259e-07
-2.33458e-07
-9.2625e-08
1.72579e-07
2.69746e-07
2.09255e-08
-4.01013e-07
-5.45136e-07
-1.0221e-07
6.89427e-07
1.18177e-06
9.11631e-07
-3.71594e-08
-1.06026e-06
-1.40642e-06
-7.96831e-07
3.20787e-07
1.21429e-06
1.40485e-06
9.0318e-07
9.03648e-08
-5.82042e-07
-8.37627e-07
-6.55169e-07
-2.41185e-07
1.75497e-07
4.42853e-07
5.21737e-07
4.0643e-07
1.53717e-07
-1.10533e-07
-2.19462e-07
-8.98515e-08
1.61342e-07
2.55454e-07
2.06363e-08
-3.81224e-07
-5.20578e-07
-9.89112e-08
6.61051e-07
1.14017e-06
8.89225e-07
-1.9416e-08
-1.01006e-06
-1.35802e-06
-7.84991e-07
2.89369e-07
1.163e-06
1.36612e-06
8.96229e-07
1.13026e-07
-5.46568e-07
-8.08913e-07
-6.451e-07
-2.49155e-07
1.57237e-07
4.22616e-07
5.0657e-07
4.00855e-07
1.59474e-07
-9.61534e-08
-2.05161e-07
-8.63547e-08
1.50743e-07
2.41263e-07
1.99636e-08
-3.61703e-07
-4.95587e-07
-9.46432e-08
6.33165e-07
1.09769e-06
8.6481e-07
-3.42336e-09
-9.59891e-07
-1.30754e-06
-7.7009e-07
2.59981e-07
1.11132e-06
1.32484e-06
8.86202e-07
1.33797e-07
-5.11031e-07
-7.78497e-07
-6.32756e-07
-2.55361e-07
1.39653e-07
4.02156e-07
4.90451e-07
3.94098e-07
1.64256e-07
-8.22407e-08
-1.90694e-07
-8.22043e-08
1.4083e-07
2.27287e-07
1.89574e-08
-3.42549e-07
-4.7034e-07
-8.94773e-08
6.05941e-07
1.05465e-06
8.38623e-07
1.07372e-08
-9.10141e-07
-1.25542e-06
-7.52325e-07
2.32824e-07
1.05971e-06
1.28144e-06
8.73243e-07
1.525e-07
-4.75781e-07
-7.46706e-07
-6.18294e-07
-2.59762e-07
1.22917e-07
3.81678e-07
4.73551e-07
3.86243e-07
1.68043e-07
-6.89022e-08
-1.76196e-07
-7.74798e-08
1.31632e-07
2.13628e-07
1.76753e-08
-3.23842e-07
-4.45011e-07
-8.3501e-08
5.79521e-07
1.01137e-06
8.10918e-07
2.303e-08
-8.61159e-07
-1.2021e-06
-7.3193e-07
2.08039e-07
1.00859e-06
1.23636e-06
8.5754e-07
1.6901e-07
-4.41144e-07
-7.13871e-07
-6.01896e-07
-2.62352e-07
1.07182e-07
3.61378e-07
4.56048e-07
3.7739e-07
1.70832e-07
-5.62293e-08
-1.61796e-07
-7.22686e-08
1.23163e-07
2.00379e-07
1.61803e-08
-3.05646e-07
-4.19761e-07
-7.6815e-08
5.54013e-07
9.68148e-07
7.81962e-07
3.34625e-08
-8.13254e-07
-1.14803e-06
-7.09177e-07
1.85712e-07
9.58363e-07
1.19003e-06
8.39321e-07
1.83251e-07
-4.07411e-07
-6.80321e-07
-5.8377e-07
-2.63157e-07
9.25695e-08
3.41435e-07
4.38117e-07
3.67651e-07
1.72642e-07
-4.42965e-08
-1.47616e-07
-6.66633e-08
1.15424e-07
1.8762e-07
1.4538e-08
-2.88007e-07
-3.94739e-07
-6.95291e-08
5.29499e-07
9.2525e-07
7.52027e-07
4.20814e-08
-7.66685e-07
-1.09363e-06
-6.84359e-07
1.65872e-07
9.09352e-07
1.14287e-06
8.18845e-07
1.95197e-07
-3.74834e-07
-6.46377e-07
-5.64138e-07
-2.62232e-07
7.91774e-08
3.22013e-07
4.19933e-07
3.57149e-07
1.73505e-07
-3.31608e-08
-1.33766e-07
-6.07596e-08
1.08398e-07
1.75417e-07
1.28145e-08
-2.70956e-07
-3.70079e-07
-6.17593e-08
5.06031e-07