/*--------------------------------*- C++ -*----------------------------------*\
| =========                 |                                                 |
| \\      /  F ield         | OpenFOAM: The Open Source CFD Toolbox           |
|  \\    /   O peration     | Version:  v1912                                 |
|   \\  /    A nd           | Website:  www.openfoam.com                      |
|    \\/     M anipulation  |                                                 |
\*---------------------------------------------------------------------------*/
FoamFile
{
    version     2.0;
    format      ascii;
    class       surfaceScalarField;
    location    "31187";
    object      phi;
}
// * * * * * * * * * * * * * * * * * * * * * * * * * * * * * * * * * * * * * //

dimensions      [0 3 -1 0 0 0 0];
oriented        oriented;


internalField   nonuniform List<scalar> 
17670
(
2.55052e-07
-6.56854e-10
2.55326e-07
-2.74412e-10
2.55158e-07
1.68308e-10
2.54611e-07
5.4733e-10
2.53979e-07
6.31959e-10
2.53724e-07
2.54595e-10
2.54103e-07
-3.78269e-10
2.54784e-07
-6.81794e-10
2.55002e-07
-2.1769e-10
2.54278e-07
7.24486e-10
2.53091e-07
1.18693e-09
2.5267e-07
4.20327e-10
2.53793e-07
-1.12277e-09
2.5582e-07
-2.02737e-09
2.57185e-07
-1.36425e-09
2.56673e-07
5.11712e-10
2.5435e-07
2.32268e-09
2.51743e-07
2.60703e-09
2.50798e-07
9.45394e-10
2.5215e-07
-1.35202e-09
2.54707e-07
-2.55702e-09
2.56805e-07
-2.09819e-09
2.57381e-07
-5.76353e-10
2.564e-07
9.81361e-10
2.54636e-07
1.76357e-09
2.53092e-07
1.54437e-09
2.52437e-07
6.5498e-10
2.5272e-07
-2.82965e-10
2.53521e-07
-8.00628e-10
-8.74449e-10
7.82992e-07
-2.64766e-09
7.83827e-07
-1.10952e-09
7.8332e-07
6.75101e-10
7.81658e-07
2.20874e-09
7.79736e-07
2.55418e-09
7.78963e-07
1.02763e-09
7.80121e-07
-1.536e-09
7.82204e-07
-2.76473e-09
7.82868e-07
-8.81881e-10
7.80653e-07
2.93935e-09
7.77024e-07
4.81565e-09
7.75737e-07
1.70756e-09
7.7916e-07
-4.54516e-09
7.85338e-07
-8.20551e-09
7.89496e-07
-5.52287e-09
7.87945e-07
2.06281e-09
7.80876e-07
9.3923e-09
7.72937e-07
1.05458e-08
7.70063e-07
3.81953e-09
7.7418e-07
-5.46895e-09
7.81949e-07
-1.03269e-08
7.88317e-07
-8.46598e-09
7.90065e-07
-2.32437e-09
7.87088e-07
3.95827e-09
7.81739e-07
7.11314e-09
7.77055e-07
6.22816e-09
7.75071e-07
2.63906e-09
7.7593e-07
-1.1424e-09
7.78354e-07
-3.22416e-09
-3.52125e-09
1.31969e-06
-5.85454e-09
1.32108e-06
-2.49709e-09
1.32033e-06
1.42473e-09
1.31771e-06
4.82391e-09
1.31464e-06
5.62992e-09
1.31336e-06
2.3073e-09
1.31516e-06
-3.33982e-09
1.31849e-06
-6.09245e-09
1.3196e-06
-1.99944e-09
1.31612e-06
6.42027e-09
1.3103e-06
1.0635e-08
1.30814e-06
3.87459e-09
1.31349e-06
-9.8978e-09
1.32334e-06
-1.80564e-08
1.33011e-06
-1.22898e-08
1.32784e-06
4.33433e-09
1.31667e-06
2.05601e-08
1.30391e-06
2.33015e-08
1.29911e-06
8.62139e-09
1.30549e-06
-1.18509e-08
1.31783e-06
-2.26619e-08
1.32807e-06
-1.87098e-08
1.33104e-06
-5.29414e-09
1.32646e-06
8.53801e-09
1.31799e-06
1.55824e-08
1.31047e-06
1.37514e-08
1.30719e-06
5.91478e-09
1.30846e-06
-2.41114e-09
1.31227e-06
-7.03085e-09
-7.7336e-09
1.83137e-06
-9.95025e-09
1.83324e-06
-4.36552e-09
1.83243e-06
2.22709e-09
1.82925e-06
8.01121e-09
1.82538e-06
9.49291e-09
1.82367e-06
4.01793e-09
1.82581e-06
-5.47806e-09
1.82996e-06
-1.02428e-08
1.83149e-06
-3.52464e-09
1.82728e-06
1.06286e-08
1.81997e-06
1.7943e-08
1.81701e-06
6.83164e-09
1.82344e-06
-1.63229e-08
1.83572e-06
-3.03374e-08
1.84447e-06
-2.10438e-08
1.8421e-06
6.70686e-09
1.82842e-06
3.42427e-08
1.81229e-06
3.94298e-08
1.80577e-06
1.51396e-08
1.81329e-06
-1.93638e-08
1.82856e-06
-3.79411e-08
1.8416e-06
-3.17418e-08
1.84575e-06
-9.44761e-09
1.84042e-06
1.38693e-08
1.82997e-06
2.60302e-08
1.82043e-06
2.32941e-08
1.81605e-06
1.02903e-08
1.81739e-06
-3.74483e-09
1.82201e-06
-1.16574e-08
-1.29933e-08
2.29916e-06
-1.4583e-08
2.3014e-06
-6.60516e-09
2.30069e-06
2.93067e-09
2.2973e-06
1.14097e-08
2.29302e-06
1.37646e-08
2.291e-06
6.04616e-09
2.29319e-06
-7.66993e-09
2.29773e-06
-1.47847e-08
2.29957e-06
-5.36165e-09
2.29513e-06
1.50672e-08
2.28706e-06
2.6009e-08
2.2835e-06
1.03974e-08
2.29022e-06
-2.30427e-08
2.30369e-06
-4.38062e-08
2.3137e-06
-3.106e-08
2.31169e-06
8.71555e-09
2.29701e-06
4.89292e-08
2.27904e-06
5.73978e-08
2.27118e-06
2.29957e-08
2.27881e-06
-2.69942e-08
2.29544e-06
-5.45686e-08
2.3101e-06
-4.64028e-08
2.31527e-06
-1.46138e-08
2.30992e-06
1.92167e-08
2.2986e-06
3.73472e-08
2.28791e-06
3.39858e-08
2.28271e-06
1.54927e-08
2.28383e-06
-4.86249e-09
2.28874e-06
-1.65696e-08
-1.87809e-08
2.72506e-06
-1.94994e-08
2.72756e-06
-9.11438e-09
2.72703e-06
3.46372e-09
2.72364e-06
1.4796e-08
2.71922e-06
1.8186e-08
2.71698e-06
8.28817e-09
2.71907e-06
-9.75549e-09
2.72371e-06
-1.94292e-08
2.72576e-06
-7.41038e-09
2.72139e-06
1.94417e-08
2.71306e-06
3.43344e-08
2.70907e-06
1.43854e-08
2.71564e-06
-2.96056e-08
2.72947e-06
-5.76432e-08
2.7402e-06
-4.1783e-08
2.73874e-06
1.01666e-08
2.72399e-06
6.3679e-08
2.70526e-06
7.61331e-08
2.69644e-06
3.18125e-08
2.70362e-06
-3.41693e-08
2.72056e-06
-7.15079e-08
2.73602e-06
-6.18679e-08
2.74199e-06
-2.05785e-08
2.73702e-06
2.41787e-08
2.72555e-06
4.88226e-08
2.71432e-06
4.52119e-08
2.70854e-06
2.12777e-08
2.7093e-06
-5.62844e-09
2.71417e-06
-2.14358e-08
-2.47491e-08
3.11853e-06
-2.45368e-08
3.12123e-06
-1.18152e-08
3.12089e-06
3.80125e-09
3.11764e-06
1.80483e-08
3.11322e-06
2.26001e-08
3.11085e-06
1.06654e-08
3.11275e-06
-1.16576e-08
3.11733e-06
-2.4006e-08
3.11951e-06
-9.59076e-09
3.11535e-06
2.36014e-08
3.10706e-06
4.26202e-08
3.1028e-06
1.86478e-08
3.10898e-06
-3.57849e-08
3.1227e-06
-7.13694e-08
3.13376e-06
-5.28421e-08
3.13292e-06
1.10128e-08
3.11862e-06
7.79764e-08
3.09978e-06
9.49738e-08
3.0903e-06
4.12912e-08
3.09675e-06
-4.06155e-08
3.1134e-06
-8.81619e-08
3.12915e-06
-7.76144e-08
3.13572e-06
-2.7154e-08
3.13133e-06
2.857e-08
3.1201e-06
6.0052e-08
3.10873e-06
5.65866e-08
3.10254e-06
2.7461e-08
3.10291e-06
-5.99512e-09
3.10755e-06
-2.60741e-08
-3.06905e-08
3.48865e-06
-2.95889e-08
3.49148e-06
-1.465e-08
3.49135e-06
3.93819e-09
3.4883e-06
2.10991e-08
3.48399e-06
2.69105e-08
3.48153e-06
1.31205e-08
3.48321e-06
-1.33407e-08
3.48762e-06
-2.84143e-08
3.48987e-06
-1.18435e-08
3.48601e-06
2.74697e-08
3.47794e-06
5.06863e-08
3.47351e-06
2.30752e-08
3.4792e-06
-4.14684e-08
3.49253e-06
-8.47009e-08
3.50368e-06
-6.39908e-08
3.50343e-06
1.12637e-08
3.48987e-06
9.15349e-08
3.47133e-06
1.13509e-07
3.46141e-06
5.12087e-08
3.46701e-06
-4.6207e-08
3.48302e-06
-1.04181e-07
3.49872e-06
-9.33065e-08
3.50575e-06
-3.41909e-08
3.50202e-06
3.23088e-08
3.49127e-06
7.08006e-08
3.47999e-06
6.78645e-08
3.47354e-06
3.3908e-08
3.4735e-06
-5.9537e-09
3.47781e-06
-3.03836e-08
-3.6478e-08
3.84241e-06
-3.45826e-08
3.84533e-06
-1.75753e-08
3.84539e-06
3.87764e-09
3.84258e-06
2.39095e-08
3.83844e-06
3.10549e-08
3.83595e-06
1.56113e-08
3.8374e-06
-1.47895e-08
3.84157e-06
-3.25918e-08
3.84386e-06
-1.41244e-08
3.84032e-06
3.10073e-08
3.83258e-06
5.84201e-08
3.82807e-06
2.75871e-08
3.8332e-06
-4.65999e-08
3.84596e-06
-9.74613e-08
3.85703e-06
-7.50596e-08
3.85735e-06
1.09478e-08
3.8447e-06
1.04189e-07
3.82673e-06
1.3147e-07
3.81654e-06
6.13975e-08
3.82123e-06
-5.08899e-08
3.8364e-06
-1.19349e-07
3.85181e-06
-1.08718e-07
3.85919e-06
-4.15718e-08
3.85613e-06
3.53621e-08
3.84601e-06
8.09251e-08
3.83499e-06
7.88814e-08
3.82838e-06
4.05177e-08
3.82794e-06
-5.5116e-09
3.83186e-06
-3.43053e-08
-4.20294e-08
4.18494e-06
-3.94649e-08
4.18792e-06
-2.0557e-08
4.18817e-06
3.62629e-09
4.18563e-06
2.64562e-08
4.18169e-06
3.49915e-08
4.1792e-06
1.8105e-08
4.18041e-06
-1.59994e-08
4.18431e-06
-3.64991e-08
4.18659e-06
-1.63999e-08
4.1834e-06
3.4195e-08
4.17607e-06
6.57481e-08
4.17154e-06
3.21219e-08
4.17609e-06
-5.1153e-08
4.18817e-06
-1.09536e-07
4.19903e-06
-8.59263e-08
4.19988e-06
1.01003e-08
4.18823e-06
1.15839e-07
4.17102e-06
1.48677e-07
4.16069e-06
7.17269e-08
4.16445e-06
-5.46473e-08
4.17863e-06
-1.33528e-07
4.1936e-06
-1.23687e-07
4.20123e-06
-4.92017e-08
4.19887e-06
3.77216e-08
4.18946e-06
9.03341e-08
4.17882e-06
8.95218e-08
4.17213e-06
4.72113e-08
4.1713e-06
-4.68358e-09
4.1748e-06
-3.78041e-08
-4.72887e-08
4.52003e-06
-4.41952e-08
4.52304e-06
-2.35669e-08
4.52348e-06
3.19261e-09
4.52121e-06
2.87254e-08
4.51751e-06
3.86906e-08
4.51504e-06
2.05755e-08
4.51601e-06
-1.69717e-08
4.51962e-06
-4.01103e-08
4.52187e-06
-1.86435e-08
4.51904e-06
3.70251e-08
4.51216e-06
7.26215e-08
4.50765e-06
3.6631e-08
4.51162e-06
-5.51185e-08
4.52293e-06
-1.2085e-07
4.53351e-06
-9.64989e-08
4.53485e-06
8.75861e-09
4.52426e-06
1.26428e-07
4.50794e-06
1.65001e-07
4.49757e-06
8.20912e-08
4.50041e-06
-5.74834e-08
4.51351e-06
-1.46628e-07
4.52791e-06
-1.38096e-07
4.53571e-06
-5.7001e-08
4.53404e-06
3.93927e-08
4.52541e-06
9.89677e-08
4.51523e-06
9.97007e-08
4.50852e-06
5.39244e-08
4.50732e-06
-3.48821e-09
4.51038e-06
-4.08592e-08
-5.22157e-08
4.85053e-06
-4.87415e-08
4.85355e-06
-2.65812e-08
4.85416e-06
2.58626e-09
4.85217e-06
3.07097e-08
4.84873e-06
4.21311e-08
4.8463e-06
2.30009e-08
4.84704e-06
-1.77116e-08
4.85034e-06
-4.34088e-08
4.85253e-06
-2.08333e-08
4.85006e-06
3.94971e-08
4.84368e-06
7.90068e-08
4.83923e-06
4.10745e-08
4.84261e-06
-5.84981e-08
4.85311e-06
-1.31349e-07
4.86332e-06
-1.06706e-07
4.86512e-06
6.96082e-09
4.85562e-06
1.35921e-07
4.84028e-06
1.80348e-07
4.82997e-06
9.24016e-08
4.8319e-06
-5.94161e-08
4.84386e-06
-1.58587e-07
4.85761e-06
-1.51851e-07
4.86551e-06
-6.49007e-08
4.86452e-06
4.03898e-08
4.8567e-06
1.06787e-07
4.84704e-06
1.09353e-07
4.84036e-06
6.06028e-08
4.83882e-06
-1.94648e-09
4.84142e-06
-4.3459e-08
-5.67813e-08
5.17863e-06
-5.30773e-08
5.18163e-06
-2.95784e-08
5.1824e-06
1.81778e-09
5.1807e-06
3.24058e-08
5.17753e-06
4.52974e-08
5.17517e-06
2.53624e-08
5.17569e-06
-1.82266e-08
5.17866e-06
-4.6384e-08
5.18078e-06
-2.29509e-08
5.17866e-06
4.16157e-08
5.17279e-06
8.48816e-08
5.16844e-06
4.54183e-08
5.17125e-06
-6.13005e-08
5.1809e-06
-1.41e-07
5.19068e-06
-1.16488e-07
5.19289e-06
4.74588e-09
5.18451e-06
1.44305e-07
5.17021e-06
1.94648e-07
5.16003e-06
1.0258e-07
5.16109e-06
-6.04728e-08
5.17187e-06
-1.69367e-07
5.1849e-06
-1.6488e-07
5.19283e-06
-7.28387e-08
5.19249e-06
4.07336e-08
5.18551e-06
1.13768e-07
5.17643e-06
1.18429e-07
5.16984e-06
6.71987e-08
5.16797e-06
-8.12145e-11
5.17011e-06
-4.5599e-08
-6.09635e-08
5.50605e-06
-5.71804e-08
5.50901e-06
-3.25391e-08
5.50993e-06
8.98496e-10
5.50852e-06
3.38136e-08
5.50564e-06
4.81779e-08
5.50336e-06
2.76435e-08
5.50366e-06
-1.85263e-08
5.50631e-06
-4.90297e-08
5.50834e-06
-2.49802e-08
5.50656e-06
4.33886e-08
5.50121e-06
9.02308e-08
5.497e-06
4.96325e-08
5.49924e-06
-6.35402e-08
5.50802e-06
-1.49778e-07
5.51733e-06
-1.25798e-07
5.51992e-06
2.15345e-09
5.51265e-06
1.51577e-07
5.49944e-06
2.07851e-07
5.48947e-06
1.12558e-07
5.48968e-06
-6.06882e-08
5.49926e-06
-1.78945e-07
5.5115e-06
-1.77122e-07
5.51942e-06
-8.07578e-08
5.51971e-06
4.04495e-08
5.51358e-06
1.19896e-07
5.50512e-06
1.26887e-07
5.49865e-06
7.36689e-08
5.49648e-06
2.08315e-09
5.49817e-06
-4.72795e-08
-6.47461e-08
5.83419e-06
-6.10317e-08
5.8371e-06
-3.54451e-08
5.83815e-06
-1.59537e-10
5.83703e-06
3.49357e-08
5.83445e-06
5.07643e-08
5.83226e-06
2.98291e-08
5.83236e-06
-1.86216e-08
5.83467e-06
-5.13429e-08
5.83659e-06
-2.69067e-08
5.83516e-06
4.48265e-08
5.83034e-06
9.50452e-08
5.82629e-06
5.36899e-08
5.82798e-06
-6.52355e-08
5.83587e-06
-1.5767e-07
5.84467e-06
-1.34592e-07
5.8476e-06
-7.76025e-10
5.84143e-06
1.57746e-07
5.82936e-06
2.19917e-07
5.81965e-06
1.2227e-07
5.81906e-06
-6.01026e-08
5.82743e-06
-1.87308e-07
5.83883e-06
-1.88528e-07
5.84668e-06
-8.86041e-08
5.84756e-06
3.95669e-08
5.84229e-06
1.25165e-07
5.83448e-06
1.34695e-07
5.82818e-06
7.99739e-08
5.82574e-06
4.52075e-09
5.82697e-06
-4.85048e-08
-6.81172e-08
6.1642e-06
-6.46142e-08
6.16703e-06
-3.8279e-08
6.16822e-06
-1.34358e-09
6.16738e-06
3.57764e-08
6.16509e-06
5.30506e-08
6.16301e-06
3.19053e-08
6.16292e-06
-1.85245e-08
6.1649e-06
-5.33235e-08
6.16671e-06
-2.87176e-08
6.16559e-06
4.59419e-08
6.16132e-06
9.93197e-08
6.15744e-06
5.75657e-08
6.15862e-06
-6.64081e-08
6.16561e-06
-1.64667e-07
6.17386e-06
-1.42836e-07
6.17708e-06
-4.00127e-09
6.172e-06
1.62826e-07
6.1611e-06
2.30817e-07
6.15171e-06
1.31657e-07
6.15037e-06
-5.87612e-08
6.15752e-06
-1.94454e-07
6.16805e-06
-1.99055e-07
6.17577e-06
-9.63265e-08
6.17722e-06
3.81186e-08
6.17281e-06
1.29577e-07
6.16568e-06
1.41825e-07
6.15957e-06
8.60765e-08
6.15689e-06
7.20438e-09
6.15767e-06
-4.92828e-08
-7.10679e-08
6.49705e-06
-6.79132e-08
6.4998e-06
-4.10243e-08
6.5011e-06
-2.64028e-09
6.50053e-06
3.63421e-08
6.49855e-06
5.50329e-08
6.49659e-06
3.38593e-08
6.49632e-06
-1.8248e-08
6.49797e-06
-5.49731e-08
6.49965e-06
-3.04009e-08
6.49884e-06
4.67489e-08
6.49511e-06
1.03053e-07
6.49144e-06
6.12369e-08
6.49211e-06
-6.70822e-08
6.49822e-06
-1.70768e-07
6.50587e-06
-1.50495e-07
6.50935e-06
-7.48027e-09
6.50534e-06
1.66841e-07
6.49563e-06
2.4053e-07
6.48662e-06
1.40662e-07
6.48457e-06
-5.67132e-08
6.49051e-06
-2.0039e-07
6.50012e-06
-2.08669e-07
6.50767e-06
-1.03875e-07
6.50965e-06
3.61401e-08
6.50609e-06
1.33138e-07
6.49966e-06
1.48257e-07
6.49379e-06
9.19416e-08
6.49089e-06
1.01056e-08
6.49123e-06
-4.96241e-08
-7.35928e-08
6.83359e-06
-7.09155e-08
6.83623e-06
-4.36648e-08
6.83763e-06
-4.03565e-09
6.83733e-06
3.66405e-08
6.83565e-06
5.67091e-08
6.83383e-06
3.56792e-08
6.83339e-06
-1.78059e-08
6.83471e-06
-5.62953e-08
6.83626e-06
-3.19459e-08
6.83574e-06
4.7263e-08
6.83255e-06
1.06246e-07
6.82911e-06
6.46819e-08
6.82931e-06
-6.72843e-08
6.83451e-06
-1.75975e-07
6.84156e-06
-1.57542e-07
6.84525e-06
-1.11704e-08
6.84227e-06
1.69819e-07
6.83376e-06
2.49042e-07
6.82519e-06
1.49232e-07
6.82249e-06
-5.40114e-08
6.82723e-06
-2.05126e-07
6.8359e-06
-2.17338e-07
6.84322e-06
-1.11203e-07
6.84569e-06
3.36697e-08
6.84297e-06
1.35859e-07
6.83726e-06
1.53972e-07
6.83166e-06
9.75356e-08
6.82857e-06
1.31948e-08
6.82849e-06
-4.95421e-08
-7.56887e-08
7.17454e-06
-7.36095e-08
7.17706e-06
-4.61849e-08
7.17854e-06
-5.5152e-09
7.1785e-06
3.66806e-08
7.17713e-06
5.80786e-08
7.17546e-06
3.7354e-08
7.17486e-06
-1.72123e-08
7.17586e-06
-5.72955e-08
7.17726e-06
-3.33427e-08
7.17702e-06
4.75005e-08
7.17437e-06
1.08902e-07
7.17117e-06
6.78807e-08
7.17093e-06
-6.70427e-08
7.17525e-06
-1.80296e-07
7.18165e-06
-1.63951e-07
7.18551e-06
-1.50284e-08
7.18354e-06
1.71791e-07
7.17624e-06
2.56347e-07
7.16815e-06
1.57315e-07
7.16485e-06
-5.07116e-08
7.16841e-06
-2.08683e-07
7.17611e-06
-2.25038e-07
7.18317e-06
-1.18262e-07
7.18609e-06
3.07478e-08
7.18419e-06
1.37757e-07
7.17921e-06
1.58957e-07
7.17392e-06
1.02827e-07
7.17067e-06
1.64415e-08
7.17018e-06
-4.90524e-08
-7.73548e-08
7.52056e-06
-7.59851e-08
7.52294e-06
-4.85696e-08
7.52449e-06
-7.06397e-09
7.5247e-06
3.64729e-08
7.52364e-06
5.91424e-08
7.52212e-06
3.88733e-08
7.52139e-06
-1.64824e-08
7.52207e-06
-5.79803e-08
7.52331e-06
-3.45824e-08
7.52333e-06
4.74788e-08
7.52121e-06
1.11029e-07
7.51827e-06
7.08146e-08
7.51762e-06
-6.63875e-08
7.52106e-06
-1.8374e-07
7.52681e-06
-1.69699e-07
7.53079e-06
-1.90108e-08
7.52979e-06
1.72795e-07
7.5237e-06
2.62441e-07
7.51615e-06
1.64864e-07
7.51231e-06
-4.68725e-08
7.51471e-06
-2.11084e-07
7.52142e-06
-2.31749e-07
7.52817e-06
-1.25008e-07
7.5315e-06
2.74171e-08
7.5304e-06
1.3885e-07
7.52616e-06
1.63203e-07
7.5212e-06
1.07785e-07
7.51783e-06
1.98141e-08
7.51695e-06
-4.81728e-08
-7.85927e-08
7.87224e-06
-7.80336e-08
7.87447e-06
-5.08041e-08
7.87608e-06
-8.66654e-09
7.87652e-06
3.60288e-08
7.87576e-06
5.99031e-08
7.8744e-06
4.02279e-08
7.87355e-06
-1.56314e-08
7.87393e-06
-5.8358e-08
7.87501e-06
-3.56572e-08
7.87527e-06
4.72162e-08
7.87366e-06
1.12634e-07
7.87101e-06
7.34663e-08
7.86997e-06
-6.535e-08
7.87256e-06
-1.86322e-07
7.87762e-06
-1.74767e-07
7.88169e-06
-2.30741e-08
7.88161e-06
1.72871e-07
7.87672e-06
2.67329e-07
7.86975e-06
1.71833e-07
7.86544e-06
-4.25549e-08
7.86671e-06
-2.12359e-07
7.87242e-06
-2.37454e-07
7.87881e-06
-1.31397e-07
7.8825e-06
2.37219e-08
7.88219e-06
1.39163e-07
7.87869e-06
1.66702e-07
7.87409e-06
1.12381e-07
7.87063e-06
2.32805e-08
7.86938e-06
-4.69234e-08
-7.94058e-08
8.23012e-06
-7.97477e-08
8.23219e-06
-5.28744e-08
8.23383e-06
-1.03072e-08
8.2345e-06
3.5361e-08
8.23404e-06
6.03643e-08
8.23286e-06
4.14091e-08
8.2319e-06
-1.4675e-08
8.23198e-06
-5.84381e-08
8.23288e-06
-3.656e-08
8.23337e-06
4.67314e-08
8.23227e-06
1.13729e-07
8.22992e-06
7.58203e-08
8.22853e-06
-6.39629e-08
8.23027e-06
-1.8806e-07
8.23464e-06
-1.79139e-07
8.23874e-06
-2.71744e-08
8.23955e-06
1.72064e-07
8.23586e-06
2.7102e-07
8.22951e-06
1.78179e-07
8.22478e-06
-3.78217e-08
8.22496e-06
-2.12542e-07
8.22965e-06
-2.42142e-07
8.23564e-06
-1.37388e-07
8.23965e-06
1.97084e-08
8.24009e-06
1.38722e-07
8.23734e-06
1.69452e-07
8.23314e-06
1.16589e-07
8.22961e-06
2.68077e-08
8.22801e-06
-4.5326e-08
-7.98e-08
8.59471e-06
-8.11216e-08
8.5966e-06
-5.47669e-08
8.59826e-06
-1.19698e-08
8.59914e-06
3.44833e-08
8.59897e-06
6.05314e-08
8.59797e-06
4.24093e-08
8.59693e-06
-1.36295e-08
8.59672e-06
-5.82313e-08
8.59745e-06
-3.72851e-08
8.59813e-06
4.60437e-08
8.59754e-06
1.14326e-07
8.5955e-06
7.78624e-08
8.59379e-06
-6.226e-08
8.59471e-06
-1.88975e-07
8.59837e-06
-1.828e-07
8.60246e-06
-3.12684e-08
8.6041e-06
1.70422e-07
8.6016e-06
2.73528e-07
8.59591e-06
1.83863e-07
8.59083e-06
-3.27377e-08
8.58996e-06
-2.11673e-07
8.59362e-06
-2.45805e-07
8.59917e-06
-1.42939e-07
8.60346e-06
1.5424e-08
8.60462e-06
1.37558e-07
8.60262e-06
1.71455e-07
8.59883e-06
1.20382e-07
8.59527e-06
3.03624e-08
8.59335e-06
-4.34043e-08
-7.9783e-08
8.96648e-06
-8.21511e-08
8.96818e-06
-5.6469e-08
8.96985e-06
-1.36381e-08
8.97092e-06
3.34102e-08
8.97104e-06
6.0411e-08
8.97023e-06
4.32219e-08
8.96911e-06
-1.25112e-08
8.96863e-06
-5.775e-08
8.96917e-06
-3.78276e-08
8.97004e-06
4.51732e-08
8.96993e-06
1.14439e-07
8.96821e-06
7.95801e-08
8.96623e-06
-6.02759e-08
8.96634e-06
-1.89092e-07
8.96928e-06
-1.8574e-07
8.97333e-06
-3.53129e-08
8.97576e-06
1.67996e-07
8.97441e-06
2.74873e-07
8.96942e-06
1.88848e-07
8.96406e-06
-2.73689e-08
8.96218e-06
-2.09796e-07
8.96482e-06
-2.48443e-07
8.96989e-06
-1.48012e-07
8.9744e-06
1.09175e-08
8.97625e-06
1.35704e-07
8.97499e-06
1.72713e-07
8.97164e-06
1.23737e-07
8.96809e-06
3.3911e-08
8.96587e-06
-4.1184e-08
-7.93644e-08
9.34588e-06
-8.28336e-08
9.34738e-06
-5.79686e-08
9.34904e-06
-1.52958e-08
9.35029e-06
3.21575e-08
9.35069e-06
6.0011e-08
9.35007e-06
4.3841e-08
9.3489e-06
-1.13366e-08
9.34815e-06
-5.70075e-08
9.34851e-06
-3.81837e-08
9.34954e-06
4.41399e-08
9.3499e-06
1.14086e-07
9.34851e-06
8.09626e-08
9.34628e-06
-5.80462e-08
9.34563e-06
-1.88438e-07
9.34784e-06
-1.87953e-07
9.35179e-06
-3.92655e-08
9.35495e-06
1.6484e-07
9.35474e-06
2.75079e-07
9.35049e-06
1.93103e-07
9.3449e-06
-2.17824e-08
9.34207e-06
-2.06961e-07
9.34368e-06
-2.50056e-07
9.34824e-06
-1.5257e-07
9.35292e-06
6.23882e-09
9.35543e-06
1.33198e-07
9.3549e-06
1.73235e-07
9.35201e-06
1.26634e-07
9.3485e-06
3.74198e-08
9.34601e-06
-3.8692e-08
-7.85562e-08
9.73335e-06
-8.31679e-08
9.73463e-06
-5.92543e-08
9.73626e-06
-1.69262e-08
9.73768e-06
3.07418e-08
9.73835e-06
5.93409e-08
9.73793e-06
4.42623e-08
9.73671e-06
-1.01222e-08
9.73572e-06
-5.60183e-08
9.73589e-06
-3.83509e-08
9.73707e-06
4.29645e-08
9.73787e-06
1.13286e-07
9.73683e-06
8.2001e-08
9.73439e-06
-5.56069e-08
9.733e-06
-1.87045e-07
9.73448e-06
-1.89433e-07
9.7383e-06
-4.30844e-08
9.74213e-06
1.6101e-07
9.74303e-06
2.74176e-07
9.73953e-06
1.96597e-07
9.7338e-06
-1.6046e-08
9.73006e-06
-2.03221e-07
9.73065e-06
-2.50653e-07
9.73466e-06
-1.5658e-07
9.73946e-06
1.4385e-09
9.74258e-06
1.3008e-07
9.74279e-06
1.73032e-07
9.74037e-06
1.29052e-07
9.73693e-06
4.0855e-08
9.7342e-06
-3.59571e-08
-7.73722e-08
1.01293e-05
-8.31548e-08
1.01304e-05
-6.0316e-08
1.01319e-05
-1.85132e-08
1.01335e-05
2.91803e-08
1.01344e-05
5.84113e-08
1.01342e-05
4.4482e-08
1.0133e-05
-8.88471e-09
1.01318e-05
-5.47982e-08
1.01317e-05
-3.83276e-08
1.0133e-05
4.16678e-08
1.01343e-05
1.12058e-07
1.01336e-05
8.26885e-08
1.0131e-05
-5.29946e-08
1.01289e-05
-1.84946e-07
1.01296e-05
-1.90181e-07
1.01333e-05
-4.67289e-08
1.01377e-05
1.56565e-07
1.01397e-05
2.722e-07
1.0137e-05
1.99307e-07
1.01311e-05
-1.02279e-08
1.01266e-05
-1.98634e-07
1.01262e-05
-2.50244e-07
1.01296e-05
-1.60009e-07
1.01345e-05
-3.43223e-09
1.01381e-05
1.26392e-07
1.01391e-05
1.72119e-07
1.01371e-05
1.30975e-07
1.01338e-05
4.41834e-08
1.01309e-05
-3.30094e-08
-7.58282e-08
1.05341e-05
-8.27967e-08
1.0535e-05
-6.11444e-08
1.05365e-05
-2.00402e-08
1.05382e-05
2.74911e-08
1.05394e-05
5.72342e-08
1.05393e-05
4.44979e-08
1.05381e-05
-7.6406e-09
1.05367e-05
-5.3364e-08
1.05365e-05
-3.81137e-08
1.05378e-05
4.02705e-08
1.05395e-05
1.10425e-07
1.05392e-05
8.30201e-08
1.05364e-05
-5.02462e-08
1.05336e-05
-1.82178e-07
1.05337e-05
-1.902e-07
1.05371e-05
-5.01597e-08
1.05421e-05
1.51568e-07
1.05451e-05
2.69189e-07
1.05432e-05
2.01213e-07
1.05374e-05
-4.39598e-09
1.0532e-05
-1.93263e-07
1.05306e-05
-2.48849e-07
1.05334e-05
-1.6283e-07
1.05383e-05
-8.32188e-09
1.05425e-05
1.2218e-07
1.05441e-05
1.70513e-07
1.05427e-05
1.3239e-07
1.05395e-05
4.73719e-08
1.05364e-05
-2.98804e-08
-7.39421e-08
1.09483e-05
-8.2098e-08
1.09489e-05
-6.17315e-08
1.09503e-05
-2.14913e-08
1.09521e-05
2.56931e-08
1.09535e-05
5.58232e-08
1.09537e-05
4.43089e-08
1.09525e-05
-6.40613e-09
1.09508e-05
-5.17337e-08
1.09504e-05
-3.77102e-08
1.09519e-05
3.87934e-08
1.09539e-05
1.08412e-07
1.0954e-05
8.29929e-08
1.09511e-05
-4.73985e-08
1.09477e-05
-1.78782e-07
1.0947e-05
-1.89496e-07
1.09502e-05
-5.33389e-08
1.09557e-05
1.46081e-07
1.09597e-05
2.65189e-07
1.09586e-05
2.02298e-07
1.09528e-05
1.38226e-09
1.09467e-05
-1.87172e-07
1.09444e-05
-2.46487e-07
1.09465e-05
-1.65016e-07
1.09514e-05
-1.31789e-08
1.09561e-05
1.17493e-07
1.09584e-05
1.68238e-07
1.09575e-05
1.33283e-07
1.09545e-05
5.03886e-08
1.09512e-05
-2.66025e-08
-7.17339e-08
1.13721e-05
-8.10647e-08
1.13724e-05
-6.20704e-08
1.13738e-05
-2.28508e-08
1.13757e-05
2.38056e-08
1.13773e-05
5.41927e-08
1.13777e-05
4.39152e-08
1.13765e-05
-5.19723e-09
1.13747e-05
-4.99259e-08
1.13741e-05
-3.71195e-08
1.13756e-05
3.72572e-08
1.1378e-05
1.06043e-07
1.13784e-05
8.26063e-08
1.13755e-05
-4.44881e-08
1.13715e-05
-1.74801e-07
1.13701e-05
-1.88079e-07
1.1373e-05
-5.62304e-08
1.13789e-05
1.4017e-07
1.13838e-05
2.60249e-07
1.13836e-05
2.02553e-07
1.13779e-05
7.04044e-09
1.13712e-05
-1.80433e-07
1.13679e-05
-2.43189e-07
1.13694e-05
-1.66546e-07
1.13742e-05
-1.79521e-08
1.13793e-05
1.1238e-07
1.13822e-05
1.65318e-07
1.13818e-05
1.33649e-07
1.1379e-05
5.32022e-08
1.13756e-05
-2.32092e-08
-6.92252e-08
1.1806e-05
-7.97052e-08
1.1806e-05
-6.21556e-08
1.18073e-05
-2.41035e-08
1.18093e-05
2.18485e-08
1.18111e-05
5.23588e-08
1.18117e-05
4.33184e-08
1.18105e-05
-4.02936e-09
1.18086e-05
-4.79604e-08
1.18078e-05
-3.63452e-08
1.18094e-05
3.56822e-08
1.1812e-05
1.03346e-07
1.18128e-05
8.18622e-08
1.18099e-05
-4.15514e-08
1.18053e-05
-1.70281e-07
1.18032e-05
-1.85965e-07
1.18058e-05
-5.88003e-08
1.18121e-05
1.33901e-07
1.18179e-05
2.54423e-07
1.18185e-05
2.01972e-07
1.1813e-05
1.25137e-08
1.18057e-05
-1.73119e-07
1.18015e-05
-2.38985e-07
1.18023e-05
-1.67401e-07
1.1807e-05
-2.25909e-08
1.18125e-05
1.06895e-07
1.1816e-05
1.61782e-07
1.18162e-05
1.3348e-07
1.18136e-05
5.57828e-08
1.18101e-05
-1.97347e-08
-6.64398e-08
1.22503e-05
-7.80295e-08
1.22501e-05
-6.19833e-08
1.22513e-05
-2.52347e-08
1.22533e-05
1.98419e-08
1.22553e-05
5.03385e-08
1.22561e-05
4.25215e-08
1.2255e-05
-2.9174e-09
1.22529e-05
-4.58576e-08
1.22519e-05
-3.53922e-08
1.22535e-05
3.40882e-08
1.22565e-05
1.00351e-07
1.22576e-05
8.07645e-08
1.22547e-05
-3.8624e-08
1.22497e-05
-1.6527e-07
1.22469e-05
-1.83171e-07
1.22491e-05
-6.1017e-08
1.22556e-05
1.27342e-07
1.22623e-05
2.4777e-07
1.22637e-05
2.00555e-07
1.22585e-05
1.77393e-08
1.22507e-05
-1.65304e-07
1.22456e-05
-2.33915e-07
1.22458e-05
-1.67566e-07
1.22502e-05
-2.70457e-08
1.2256e-05
1.01092e-07
1.22601e-05
1.57664e-07
1.22609e-05
1.32775e-07
1.22585e-05
5.81021e-08
1.2255e-05
-1.62139e-08
-6.34031e-08
1.27055e-05
-7.60499e-08
1.27051e-05
-6.15509e-08
1.27061e-05
-2.62307e-08
1.27081e-05
1.78062e-08
1.27103e-05
4.815e-08
1.27113e-05
4.15287e-08
1.27102e-05
-1.8755e-09
1.2708e-05
-4.36384e-08
1.27069e-05
-3.42668e-08
1.27085e-05
3.24946e-08
1.27117e-05
9.70854e-08
1.27132e-05
7.93197e-08
1.27103e-05
-3.57403e-08
1.27049e-05
-1.59818e-07
1.27014e-05
-1.79719e-07
1.27032e-05
-6.28518e-08
1.271e-05
1.20559e-07
1.27174e-05
2.40352e-07
1.27197e-05
1.98308e-07
1.27148e-05
2.2657e-08
1.27065e-05
-1.5707e-07
1.27006e-05
-2.28022e-07
1.27001e-05
-1.67033e-07
1.27043e-05
-3.12681e-08
1.27104e-05
9.50281e-08
1.27151e-05
1.52999e-07
1.27163e-05
1.31536e-07
1.27143e-05
6.01334e-08
1.27107e-05
-1.26818e-08
-6.01423e-08
1.31719e-05
-7.37806e-08
1.31712e-05
-6.08578e-08
1.31721e-05
-2.70785e-08
1.31741e-05
1.5762e-08
1.31764e-05
4.58125e-08
1.31776e-05
4.0346e-08
1.31767e-05
-9.16933e-10
1.31744e-05
-4.13242e-08
1.31731e-05
-3.29769e-08
1.31746e-05
3.09198e-08
1.31781e-05
9.35826e-08
1.31799e-05
7.75366e-08
1.31771e-05
-3.29339e-08
1.31713e-05
-1.53978e-07
1.31672e-05
-1.75636e-07
1.31686e-05
-6.42786e-08
1.31756e-05
1.13622e-07
1.31837e-05
2.32237e-07
1.31867e-05
1.95243e-07
1.31822e-05
2.72098e-08
1.31736e-05
-1.48495e-07
1.31669e-05
-2.21355e-07
1.31657e-05
-1.65795e-07
1.31697e-05
-3.52119e-08
1.31759e-05
8.87602e-08
1.31811e-05
1.47828e-07
1.31829e-05
1.29768e-07
1.31811e-05
6.18522e-08
1.31776e-05
-9.17371e-09
-5.66862e-08
1.36499e-05
-7.12379e-08
1.3649e-05
-5.99048e-08
1.36497e-05
-2.7766e-08
1.36517e-05
1.37296e-08
1.36542e-05
4.33461e-08
1.36555e-05
3.89806e-08
1.36547e-05
-5.39492e-11
1.36523e-05
-3.8937e-08
1.36509e-05
-3.15313e-08
1.36524e-05
2.93814e-08
1.36561e-05
8.98719e-08
1.36582e-05
7.54267e-08
1.36555e-05
-3.02364e-08
1.36493e-05
-1.47803e-07
1.36447e-05
-1.70952e-07
1.36456e-05
-6.5275e-08
1.36527e-05
1.06598e-07
1.36614e-05
2.23494e-07
1.36653e-05
1.91376e-07
1.36611e-05
3.13446e-08
1.36523e-05
-1.39663e-07
1.36449e-05
-2.13968e-07
1.3643e-05
-1.63852e-07
1.36466e-05
-3.88325e-08
1.3653e-05
8.23471e-08
1.36587e-05
1.42192e-07
1.36609e-05
1.27479e-07
1.36596e-05
6.32363e-08
1.36561e-05
-5.72459e-09
-5.30649e-08
1.414e-05
-6.844e-08
1.41388e-05
-5.8695e-08
1.41393e-05
-2.82825e-08
1.41413e-05
1.17295e-08
1.41439e-05
4.0772e-08
1.41454e-05
3.74415e-08
1.41447e-05
7.02345e-10
1.41422e-05
-3.64987e-08
1.41406e-05
-2.99404e-08
1.41421e-05
2.78957e-08
1.4146e-05
8.59867e-08
1.41484e-05
7.30037e-08
1.41459e-05
-2.76779e-08
1.41394e-05
-1.4135e-07
1.41342e-05
-1.657e-07
1.41347e-05
-6.5822e-08
1.41418e-05
9.9554e-08
1.41511e-05
2.14197e-07
1.41557e-05
1.86732e-07
1.4152e-05
3.50123e-08
1.4143e-05
-1.30658e-07
1.4135e-05
-2.0592e-07
1.41323e-05
-1.61209e-07
1.41356e-05
-4.20885e-08
1.41421e-05
7.5848e-08
1.41481e-05
1.36137e-07
1.41509e-05
1.24683e-07
1.41499e-05
6.42661e-08
1.41466e-05
-2.36895e-09
-4.93099e-08
1.46425e-05
-6.54072e-08
1.4641e-05
-5.7233e-08
1.46413e-05
-2.86184e-08
1.46433e-05
9.78133e-09
1.46459e-05
3.81116e-08
1.46476e-05
3.57389e-08
1.4647e-05
1.34214e-09
1.46445e-05
-3.40312e-08
1.46428e-05
-2.82158e-08
1.46442e-05
2.64781e-08
1.46483e-05
8.19597e-08
1.4651e-05
7.02839e-08
1.46486e-05
-2.52859e-08
1.46419e-05
-1.34675e-07
1.46361e-05
-1.59919e-07
1.46362e-05
-6.59047e-08
1.46432e-05
9.25545e-08
1.4653e-05
2.04423e-07
1.46584e-05
1.8134e-07
1.46552e-05
3.81689e-08
1.46461e-05
-1.21561e-07
1.46375e-05
-1.97274e-07
1.46341e-05
-1.57875e-07
1.4637e-05
-4.4941e-08
1.46435e-05
6.9322e-08
1.465e-05
1.29713e-07
1.46532e-05
1.21395e-07
1.46526e-05
6.49249e-08
1.46494e-05
8.59461e-10
-4.54537e-08
1.51577e-05
-6.21616e-08
1.5156e-05
-5.55256e-08
1.51562e-05
-2.87658e-08
1.51581e-05
7.90453e-09
1.51608e-05
3.53872e-08
1.51626e-05
3.38845e-08
1.51621e-05
1.85706e-09
1.51596e-05
-3.15563e-08
1.51578e-05
-2.63704e-08
1.51591e-05
2.51423e-08
1.51633e-05
7.7824e-08
1.51663e-05
6.72858e-08
1.51641e-05
-2.30859e-08
1.51572e-05
-1.27833e-07
1.5151e-05
-1.5365e-07
1.51506e-05
-6.55122e-08
1.51575e-05
8.56636e-08
1.51676e-05
1.94249e-07
1.51737e-05
1.75235e-07
1.51711e-05
4.07758e-08
1.5162e-05
-1.12458e-07
1.51528e-05
-1.88099e-07
1.51488e-05
-1.53867e-07
1.51513e-05
-4.7355e-08
1.51577e-05
6.28281e-08
1.51645e-05
1.2297e-07
1.51682e-05
1.17636e-07
1.5168e-05
6.51992e-08
1.51649e-05
3.92804e-09
-4.15297e-08
1.56862e-05
-5.87272e-08
1.56843e-05
-5.35816e-08
1.56842e-05
-2.87182e-08
1.5686e-05
6.11763e-09
1.56888e-05
3.26215e-08
1.56908e-05
3.18915e-08
1.56904e-05
2.24026e-09
1.56879e-05
-2.90955e-08
1.5686e-05
-2.44183e-08
1.56872e-05
2.39004e-08
1.56914e-05
7.36122e-08
1.56947e-05
6.40303e-08
1.56927e-05
-2.11002e-08
1.56857e-05
-1.20883e-07
1.5679e-05
-1.46938e-07
1.56782e-05
-6.4638e-08
1.56849e-05
7.89421e-08
1.56954e-05
1.83755e-07
1.57022e-05
1.68459e-07
1.57001e-05
4.28002e-08
1.56911e-05
-1.0343e-07
1.56815e-05
-1.78466e-07
1.56768e-05
-1.49205e-07
1.56788e-05
-4.92994e-08
1.56852e-05
5.64246e-08
1.56922e-05
1.15961e-07
1.56964e-05
1.13431e-07
1.56965e-05
6.50787e-08
1.56936e-05
6.80557e-09
-3.75719e-08
1.62283e-05
-5.51295e-08
1.62262e-05
-5.14116e-08
1.62259e-05
-2.84708e-08
1.62276e-05
4.43831e-09
1.62304e-05
2.98371e-08
1.62325e-05
2.97746e-08
1.62322e-05
2.48659e-09
1.62298e-05
-2.66694e-08
1.62278e-05
-2.23745e-08
1.62289e-05
2.2763e-08
1.62332e-05
6.93569e-08
1.62367e-05
6.05405e-08
1.62349e-05
-1.93484e-08
1.62279e-05
-1.13879e-07
1.62208e-05
-1.3983e-07
1.62194e-05
-6.32805e-08
1.62259e-05
7.2448e-08
1.62367e-05
1.73023e-07
1.62441e-05
1.61058e-07
1.62426e-05
4.42158e-08
1.62338e-05
-9.45563e-08
1.62238e-05
-1.68451e-07
1.62185e-05
-1.43915e-07
1.62199e-05
-5.07471e-08
1.62262e-05
5.01683e-08
1.62334e-05
1.08741e-07
1.6238e-05
1.08808e-07
1.62385e-05
6.4557e-08
1.62359e-05
9.46263e-09
-3.36145e-08
1.67845e-05
-5.13957e-08
1.67821e-05
-4.90287e-08
1.67816e-05
-2.80207e-08
1.67832e-05
2.8831e-09
1.6786e-05
2.70571e-08
1.67882e-05
2.75494e-08
1.67881e-05
2.59265e-09
1.67857e-05
-2.42982e-08
1.67836e-05
-2.0255e-08
1.67846e-05
2.17387e-08
1.67889e-05
6.50898e-08
1.67926e-05
5.68413e-08
1.67911e-05
-1.78466e-08
1.67841e-05
-1.06879e-07
1.67766e-05
-1.32378e-07
1.67748e-05
-6.14428e-08
1.6781e-05
6.62357e-08
1.67919e-05
1.62135e-07
1.67999e-05