/*--------------------------------*- C++ -*----------------------------------*\
| =========                 |                                                 |
| \\      /  F ield         | OpenFOAM: The Open Source CFD Toolbox           |
|  \\    /   O peration     | Version:  v1912                                 |
|   \\  /    A nd           | Website:  www.openfoam.com                      |
|    \\/     M anipulation  |                                                 |
\*---------------------------------------------------------------------------*/
FoamFile
{
    version     2.0;
    format      ascii;
    class       volSymmTensorField;
    location    "31187";
    object      turbulenceProperties:R;
}
// * * * * * * * * * * * * * * * * * * * * * * * * * * * * * * * * * * * * * //

dimensions      [0 2 -2 0 0 0 0];


internalField   nonuniform List<symmTensor> 
9000
(
(2.35875e-06 -1.42686e-08 -0 2.35875e-06 -0 2.35875e-06)
(2.36783e-06 -1.43806e-08 -0 2.36783e-06 -0 2.36783e-06)
(2.35639e-06 -1.42759e-08 -0 2.35639e-06 -0 2.35639e-06)
(2.32748e-06 -1.39836e-08 -0 2.32748e-06 -0 2.32748e-06)
(2.29372e-06 -1.36336e-08 -0 2.29372e-06 -0 2.29372e-06)
(2.27791e-06 -1.34591e-08 -0 2.27791e-06 -0 2.27791e-06)
(2.29637e-06 -1.36323e-08 -0 2.29637e-06 -0 2.29637e-06)
(2.33637e-06 -1.40404e-08 -0 2.33637e-06 -0 2.33637e-06)
(2.35663e-06 -1.42657e-08 -0 2.35663e-06 -0 2.35663e-06)
(2.32475e-06 -1.39541e-08 -0 2.32475e-06 -0 2.32475e-06)
(2.2598e-06 -1.3291e-08 -0 2.2598e-06 -0 2.2598e-06)
(2.22735e-06 -1.29391e-08 -0 2.22735e-06 -0 2.22735e-06)
(2.27762e-06 -1.34124e-08 -0 2.27762e-06 -0 2.27762e-06)
(2.38517e-06 -1.45164e-08 -0 2.38517e-06 -0 2.38517e-06)
(2.46299e-06 -1.53818e-08 -0 2.46299e-06 -0 2.46299e-06)
(2.43992e-06 -1.51921e-08 -0 2.43992e-06 -0 2.43992e-06)
(2.31876e-06 -1.39486e-08 -0 2.31875e-06 -0 2.31875e-06)
(2.18124e-06 -1.25404e-08 -0 2.18124e-06 -0 2.18124e-06)
(2.13197e-06 -1.20027e-08 -0 2.13197e-06 -0 2.13197e-06)
(2.20629e-06 -1.26746e-08 -0 2.20629e-06 -0 2.20629e-06)
(2.34503e-06 -1.40628e-08 -0 2.34504e-06 -0 2.34503e-06)
(2.45496e-06 -1.52568e-08 -0 2.45496e-06 -0 2.45496e-06)
(2.47654e-06 -1.55513e-08 -0 2.47654e-06 -0 2.47654e-06)
(2.41297e-06 -1.49163e-08 -0 2.41297e-06 -0 2.41297e-06)
(2.31469e-06 -1.38965e-08 -0 2.31469e-06 -0 2.31469e-06)
(2.23788e-06 -1.30929e-08 -0 2.23788e-06 -0 2.23788e-06)
(2.21274e-06 -1.2807e-08 -0 2.21274e-06 -0 2.21274e-06)
(2.23763e-06 -1.30263e-08 -0 2.23763e-06 -0 2.23763e-06)
(2.28486e-06 -1.34906e-08 -0 2.28486e-06 -0 2.28486e-06)
(2.32918e-06 -1.39481e-08 -0 2.32918e-06 -0 2.32918e-06)
(2.04794e-05 -1.97788e-06 -0 2.04798e-05 -0 2.04796e-05)
(2.0533e-05 -1.98806e-06 -0 2.05332e-05 -0 2.05331e-05)
(2.04733e-05 -1.98194e-06 -0 2.04731e-05 -0 2.04732e-05)
(2.03154e-05 -1.96098e-06 -0 2.03151e-05 -0 2.03153e-05)
(2.01271e-05 -1.93408e-06 -0 2.01267e-05 -0 2.01269e-05)
(2.0035e-05 -1.91902e-06 -0 2.00349e-05 -0 2.00349e-05)
(2.01333e-05 -1.93034e-06 -0 2.01336e-05 -0 2.01335e-05)
(2.0355e-05 -1.96103e-06 -0 2.03554e-05 -0 2.03552e-05)
(2.04725e-05 -1.98008e-06 -0 2.04726e-05 -0 2.04725e-05)
(2.03027e-05 -1.95929e-06 -0 2.03022e-05 -0 2.03025e-05)
(1.99414e-05 -1.9087e-06 -0 1.99407e-05 -0 1.99411e-05)
(1.97505e-05 -1.87773e-06 -0 1.97502e-05 -0 1.97503e-05)
(2.00205e-05 -1.90976e-06 -0 2.00211e-05 -0 2.00208e-05)
(2.06141e-05 -1.99222e-06 -0 2.06154e-05 -0 2.06147e-05)
(2.10505e-05 -2.0603e-06 -0 2.10514e-05 -0 2.10509e-05)
(2.09403e-05 -2.05354e-06 -0 2.094e-05 -0 2.09401e-05)
(2.02834e-05 -1.96551e-06 -0 2.02819e-05 -0 2.02827e-05)
(1.9509e-05 -1.85448e-06 -0 1.95075e-05 -0 1.95083e-05)
(1.9212e-05 -1.80404e-06 -0 1.92115e-05 -0 1.92117e-05)
(1.96159e-05 -1.85019e-06 -0 1.96167e-05 -0 1.96163e-05)
(2.03866e-05 -1.95488e-06 -0 2.03882e-05 -0 2.03874e-05)
(2.09995e-05 -2.04717e-06 -0 2.10009e-05 -0 2.10002e-05)
(2.11309e-05 -2.07523e-06 -0 2.11313e-05 -0 2.11311e-05)
(2.07941e-05 -2.0342e-06 -0 2.07935e-05 -0 2.07938e-05)
(2.02544e-05 -1.95944e-06 -0 2.02533e-05 -0 2.02539e-05)
(1.98209e-05 -1.89549e-06 -0 1.98199e-05 -0 1.98204e-05)
(1.96711e-05 -1.86918e-06 -0 1.96707e-05 -0 1.96709e-05)
(1.98041e-05 -1.88288e-06 -0 1.98043e-05 -0 1.98042e-05)
(2.00658e-05 -1.91729e-06 -0 2.00662e-05 -0 2.0066e-05)
(2.0313e-05 -1.95239e-06 -0 2.03135e-05 -0 2.03133e-05)
(4.48504e-05 -1.13968e-05 -0 4.48544e-05 -0 4.48524e-05)
(4.49591e-05 -1.14504e-05 -0 4.49609e-05 -0 4.496e-05)
(4.48428e-05 -1.1426e-05 -0 4.48419e-05 -0 4.48423e-05)
(4.45309e-05 -1.13287e-05 -0 4.45275e-05 -0 4.45292e-05)
(4.4156e-05 -1.11988e-05 -0 4.41521e-05 -0 4.41541e-05)
(4.39699e-05 -1.11216e-05 -0 4.39683e-05 -0 4.39691e-05)
(4.41625e-05 -1.1171e-05 -0 4.41648e-05 -0 4.41637e-05)
(4.46027e-05 -1.13179e-05 -0 4.46069e-05 -0 4.46048e-05)
(4.48394e-05 -1.14152e-05 -0 4.48409e-05 -0 4.48401e-05)
(4.45069e-05 -1.1323e-05 -0 4.45025e-05 -0 4.45047e-05)
(4.37885e-05 -1.10793e-05 -0 4.37812e-05 -0 4.37849e-05)
(4.34021e-05 -1.09186e-05 -0 4.33994e-05 -0 4.34007e-05)
(4.39327e-05 -1.10604e-05 -0 4.39393e-05 -0 4.3936e-05)
(4.51102e-05 -1.14534e-05 -0 4.51228e-05 -0 4.51166e-05)
(4.59805e-05 -1.17899e-05 -0 4.59894e-05 -0 4.59849e-05)
(4.57731e-05 -1.17783e-05 -0 4.57701e-05 -0 4.57716e-05)
(4.44776e-05 -1.13714e-05 -0 4.44634e-05 -0 4.44704e-05)
(4.29316e-05 -1.08294e-05 -0 4.2916e-05 -0 4.29238e-05)
(4.23259e-05 -1.05625e-05 -0 4.23201e-05 -0 4.2323e-05)
(4.31228e-05 -1.07671e-05 -0 4.31306e-05 -0 4.31268e-05)
(4.46547e-05 -1.1266e-05 -0 4.46703e-05 -0 4.46626e-05)
(4.5875e-05 -1.17158e-05 -0 4.58884e-05 -0 4.58817e-05)
(4.61441e-05 -1.18669e-05 -0 4.6148e-05 -0 4.61461e-05)
(4.54853e-05 -1.16875e-05 -0 4.54794e-05 -0 4.54823e-05)
(4.44162e-05 -1.13353e-05 -0 4.44055e-05 -0 4.44108e-05)
(4.35495e-05 -1.10219e-05 -0 4.35402e-05 -0 4.35449e-05)
(4.32451e-05 -1.08838e-05 -0 4.32411e-05 -0 4.32431e-05)
(4.35059e-05 -1.09408e-05 -0 4.35074e-05 -0 4.35067e-05)
(4.40255e-05 -1.11025e-05 -0 4.40302e-05 -0 4.40279e-05)
(4.45179e-05 -1.12714e-05 -0 4.45233e-05 -0 4.45206e-05)
(7.04315e-05 -2.75968e-05 -0 7.04458e-05 -0 7.04387e-05)
(7.05907e-05 -2.77149e-05 -0 7.05973e-05 -0 7.0594e-05)
(7.04267e-05 -2.76754e-05 -0 7.04239e-05 -0 7.04253e-05)
(6.99802e-05 -2.74842e-05 -0 6.99691e-05 -0 6.99747e-05)
(6.944e-05 -2.72185e-05 -0 6.94267e-05 -0 6.94333e-05)
(6.91689e-05 -2.70516e-05 -0 6.91631e-05 -0 6.9166e-05)
(6.94423e-05 -2.71425e-05 -0 6.94497e-05 -0 6.9446e-05)
(7.00748e-05 -2.7441e-05 -0 7.00892e-05 -0 7.0082e-05)
(7.04193e-05 -2.76504e-05 -0 7.04247e-05 -0 7.0422e-05)
(6.99473e-05 -2.74773e-05 -0 6.99327e-05 -0 6.994e-05)
(6.89138e-05 -2.69793e-05 -0 6.88889e-05 -0 6.89013e-05)
(6.8349e-05 -2.66285e-05 -0 6.8339e-05 -0 6.8344e-05)
(6.91044e-05 -2.68929e-05 -0 6.91263e-05 -0 6.91153e-05)
(7.07952e-05 -2.76886e-05 -0 7.08381e-05 -0 7.08167e-05)
(7.2051e-05 -2.83938e-05 -0 7.20823e-05 -0 7.20667e-05)
(7.17676e-05 -2.84104e-05 -0 7.17591e-05 -0 7.17633e-05)
(6.99171e-05 -2.76129e-05 -0 6.98696e-05 -0 6.98933e-05)
(6.76843e-05 -2.64931e-05 -0 6.76303e-05 -0 6.76573e-05)
(6.67934e-05 -2.59009e-05 -0 6.67719e-05 -0 6.67827e-05)
(6.79308e-05 -2.62822e-05 -0 6.79559e-05 -0 6.79434e-05)
(7.01349e-05 -2.72905e-05 -0 7.01877e-05 -0 7.01613e-05)
(7.18935e-05 -2.822e-05 -0 7.19399e-05 -0 7.19167e-05)
(7.22919e-05 -2.85597e-05 -0 7.23068e-05 -0 7.22993e-05)
(7.13574e-05 -2.82289e-05 -0 7.13386e-05 -0 7.1348e-05)
(6.98248e-05 -2.75254e-05 -0 6.97886e-05 -0 6.98067e-05)
(6.85715e-05 -2.68759e-05 -0 6.85391e-05 -0 6.85553e-05)
(6.8124e-05 -2.65722e-05 -0 6.81093e-05 -0 6.81167e-05)
(6.84938e-05 -2.66705e-05 -0 6.84982e-05 -0 6.8496e-05)
(6.92408e-05 -2.69918e-05 -0 6.92566e-05 -0 6.92487e-05)
(6.99509e-05 -2.73352e-05 -0 6.99691e-05 -0 6.996e-05)
(9.35351e-05 -4.40368e-05 -0 9.35649e-05 -0 9.355e-05)
(9.37328e-05 -4.42068e-05 -0 9.37472e-05 -0 9.374e-05)
(9.35349e-05 -4.41637e-05 -0 9.35304e-05 -0 9.35327e-05)
(9.29902e-05 -4.39101e-05 -0 9.29684e-05 -0 9.29793e-05)
(9.23289e-05 -4.35466e-05 -0 9.23017e-05 -0 9.23153e-05)
(9.19931e-05 -4.33105e-05 -0 9.19803e-05 -0 9.19867e-05)
(9.2325e-05 -4.34248e-05 -0 9.2339e-05 -0 9.2332e-05)
(9.30981e-05 -4.38309e-05 -0 9.31272e-05 -0 9.31127e-05)
(9.35227e-05 -4.41276e-05 -0 9.35346e-05 -0 9.35287e-05)
(9.29496e-05 -4.39052e-05 -0 9.29211e-05 -0 9.29353e-05)
(9.16848e-05 -4.32238e-05 -0 9.16339e-05 -0 9.16593e-05)
(9.09871e-05 -4.27222e-05 -0 9.09649e-05 -0 9.0976e-05)
(9.19055e-05 -4.30601e-05 -0 9.19479e-05 -0 9.19267e-05)
(9.39725e-05 -4.41413e-05 -0 9.40595e-05 -0 9.4016e-05)
(9.55117e-05 -4.51225e-05 -0 9.55777e-05 -0 9.55447e-05)
(9.51766e-05 -4.5184e-05 -0 9.51634e-05 -0 9.517e-05)
(9.29226e-05 -4.41269e-05 -0 9.28281e-05 -0 9.28753e-05)
(9.01839e-05 -4.25857e-05 -0 9.00722e-05 -0 9.0128e-05)
(8.90773e-05 -4.17291e-05 -0 8.90294e-05 -0 8.90533e-05)
(9.04624e-05 -4.22141e-05 -0 9.05096e-05 -0 9.0486e-05)
(9.31589e-05 -4.3581e-05 -0 9.32651e-05 -0 9.3212e-05)
(9.53139e-05 -4.48613e-05 -0 9.54101e-05 -0 9.5362e-05)
(9.58102e-05 -4.53552e-05 -0 9.58444e-05 -0 9.58273e-05)
(9.46789e-05 -4.49385e-05 -0 9.46438e-05 -0 9.46613e-05)
(9.2807e-05 -4.39952e-05 -0 9.27344e-05 -0 9.27707e-05)
(9.12683e-05 -4.30989e-05 -0 9.1201e-05 -0 9.12347e-05)
(9.07129e-05 -4.26629e-05 -0 9.06805e-05 -0 9.06967e-05)
(9.11612e-05 -4.27782e-05 -0 9.11682e-05 -0 9.11647e-05)
(9.20738e-05 -4.32082e-05 -0 9.21049e-05 -0 9.20893e-05)
(9.29442e-05 -4.3675e-05 -0 9.29812e-05 -0 9.29627e-05)
(0.00011304 -5.72842e-05 -0 0.000113088 -0 0.000113064)
(0.000113266 -5.74852e-05 -0 0.00011329 -0 0.000113278)
(0.000113044 -5.74418e-05 -0 0.000113039 -0 0.000113041)
(0.000112429 -5.71534e-05 -0 0.000112396 -0 0.000112413)
(0.000111681 -5.67351e-05 -0 0.000111639 -0 0.00011166)
(0.000111301 -5.6459e-05 -0 0.000111279 -0 0.00011129)
(0.000111674 -5.65858e-05 -0 0.000111694 -0 0.000111684)
(0.000112548 -5.70556e-05 -0 0.000112592 -0 0.00011257)
(0.000113027 -5.74024e-05 -0 0.000113047 -0 0.000113037)
(0.000112381 -5.71514e-05 -0 0.000112339 -0 0.00011236)
(0.000110952 -5.63627e-05 -0 0.000110873 -0 0.000110913)
(0.000110161 -5.5771e-05 -0 0.000110124 -0 0.000110143)
(0.000111197 -5.61499e-05 -0 0.00011126 -0 0.000111229)
(0.000113533 -5.73962e-05 -0 0.000113667 -0 0.0001136)
(0.000115272 -5.85382e-05 -0 0.000115378 -0 0.000115325)
(0.000114897 -5.86295e-05 -0 0.000114882 -0 0.000114889)
(0.000112355 -5.74277e-05 -0 0.000112212 -0 0.000112283)
(0.000109257 -5.56433e-05 -0 0.000109082 -0 0.000109169)
(0.000107997 -5.4629e-05 -0 0.000107916 -0 0.000107957)
(0.00010956 -5.51691e-05 -0 0.000109628 -0 0.000109594)
(0.000112609 -5.67399e-05 -0 0.000112771 -0 0.00011269)
(0.000115045 -5.82217e-05 -0 0.000115198 -0 0.000115121)
(0.00011561 -5.88052e-05 -0 0.000115669 -0 0.000115639)
(0.000114338 -5.83448e-05 -0 0.00011429 -0 0.000114314)
(0.000112226 -5.72693e-05 -0 0.000112115 -0 0.000112171)
(0.000110485 -5.62326e-05 -0 0.000110378 -0 0.000110431)
(0.000109852 -5.57188e-05 -0 0.000109797 -0 0.000109825)
(0.000110356 -5.58399e-05 -0 0.000110363 -0 0.000110359)
(0.000111387 -5.6329e-05 -0 0.000111433 -0 0.00011141)
(0.000112371 -5.6866e-05 -0 0.000112428 -0 0.000112399)
(0.000129229 -6.73121e-05 -0 0.000129295 -0 0.000129262)
(0.000129476 -6.75289e-05 -0 0.000129511 -0 0.000129493)
(0.000129234 -6.74834e-05 -0 0.00012923 -0 0.000129232)
(0.000128566 -6.71745e-05 -0 0.000128524 -0 0.000128545)
(0.000127754 -6.67234e-05 -0 0.000127698 -0 0.000127726)
(0.000127342 -6.64248e-05 -0 0.000127311 -0 0.000127327)
(0.000127748 -6.65629e-05 -0 0.000127773 -0 0.000127761)
(0.000128696 -6.70707e-05 -0 0.000128755 -0 0.000128725)
(0.000129215 -6.74466e-05 -0 0.000129244 -0 0.000129229)
(0.000128512 -6.71743e-05 -0 0.000128458 -0 0.000128485)
(0.00012696 -6.632e-05 -0 0.000126854 -0 0.000126907)
(0.000126104 -6.56775e-05 -0 0.00012605 -0 0.000126077)
(0.000127232 -6.60861e-05 -0 0.000127311 -0 0.000127271)
(0.000129768 -6.74337e-05 -0 0.000129947 -0 0.000129857)
(0.000131653 -6.86683e-05 -0 0.000131799 -0 0.000131726)
(0.000131242 -6.877e-05 -0 0.00013123 -0 0.000131236)
(0.000128482 -6.74752e-05 -0 0.000128296 -0 0.000128389)
(0.000125117 -6.55474e-05 -0 0.00012488 -0 0.000124999)
(0.000123749 -6.44484e-05 -0 0.000123632 -0 0.000123691)
(0.00012545 -6.50296e-05 -0 0.00012553 -0 0.00012549)
(0.000128761 -6.67234e-05 -0 0.000128976 -0 0.000128869)
(0.000131405 -6.83203e-05 -0 0.000131613 -0 0.000131509)
(0.000132018 -6.89508e-05 -0 0.000132106 -0 0.000132062)
(0.000130638 -6.84574e-05 -0 0.00013058 -0 0.000130609)
(0.000128347 -6.73024e-05 -0 0.000128201 -0 0.000128274)
(0.000126455 -6.61869e-05 -0 0.00012631 -0 0.000126383)
(0.000125767 -6.56309e-05 -0 0.000125689 -0 0.000125728)
(0.000126313 -6.57606e-05 -0 0.000126318 -0 0.000126315)
(0.000127432 -6.6286e-05 -0 0.000127492 -0 0.000127462)
(0.000128502 -6.68615e-05 -0 0.000128578 -0 0.00012854)
(0.000142713 -7.49229e-05 -0 0.000142795 -0 0.000142754)
(0.000142974 -7.51486e-05 -0 0.00014302 -0 0.000142997)
(0.000142716 -7.50974e-05 -0 0.000142714 -0 0.000142715)
(0.000142006 -7.4774e-05 -0 0.000141957 -0 0.000141981)
(0.000141143 -7.43013e-05 -0 0.000141074 -0 0.000141109)
(0.000140708 -7.39889e-05 -0 0.000140668 -0 0.000140688)
(0.000141141 -7.41391e-05 -0 0.000141168 -0 0.000141155)
(0.000142148 -7.46734e-05 -0 0.000142219 -0 0.000142183)
(0.000142694 -7.5066e-05 -0 0.000142731 -0 0.000142713)
(0.000141942 -7.47748e-05 -0 0.000141879 -0 0.000141911)
(0.000140294 -7.38743e-05 -0 0.000140165 -0 0.000140229)
(0.00013939 -7.32021e-05 -0 0.00013932 -0 0.000139355)
(0.000140597 -7.364e-05 -0 0.000140687 -0 0.000140642)
(0.000143294 -7.50601e-05 -0 0.00014351 -0 0.000143402)
(0.000145288 -7.63498e-05 -0 0.000145473 -0 0.000145381)
(0.000144841 -7.64473e-05 -0 0.000144837 -0 0.000144839)
(0.000141903 -7.50823e-05 -0 0.000141683 -0 0.000141793)
(0.00013833 -7.30585e-05 -0 0.000138039 -0 0.000138185)
(0.000136885 -7.19139e-05 -0 0.000136732 -0 0.000136809)
(0.0001387 -7.25364e-05 -0 0.000138788 -0 0.000138744)
(0.000142222 -7.43196e-05 -0 0.000142479 -0 0.000142351)
(0.000145027 -7.59868e-05 -0 0.000145286 -0 0.000145157)
(0.000145672 -7.66366e-05 -0 0.000145789 -0 0.000145731)
(0.000144204 -7.61118e-05 -0 0.000144143 -0 0.000144173)
(0.000141769 -7.48996e-05 -0 0.000141595 -0 0.000141682)
(0.000139761 -7.37358e-05 -0 0.000139582 -0 0.000139671)
(0.000139031 -7.31605e-05 -0 0.00013893 -0 0.000138981)
(0.000139613 -7.33018e-05 -0 0.000139612 -0 0.000139613)
(0.000140803 -7.38526e-05 -0 0.000140872 -0 0.000140837)
(0.000141939 -7.44542e-05 -0 0.000142033 -0 0.000141986)
(0.000154052 -8.08202e-05 -0 0.000154149 -0 0.000154101)
(0.000154324 -8.10495e-05 -0 0.000154381 -0 0.000154353)
(0.000154052 -8.09933e-05 -0 0.000154053 -0 0.000154053)
(0.000153305 -8.06539e-05 -0 0.000153251 -0 0.000153278)
(0.000152401 -8.01649e-05 -0 0.000152322 -0 0.000152361)
(0.000151948 -7.98479e-05 -0 0.0001519 -0 0.000151924)
(0.000152408 -8.00087e-05 -0 0.000152435 -0 0.000152421)
(0.000153462 -8.05675e-05 -0 0.000153542 -0 0.000153502)
(0.000154028 -8.09674e-05 -0 0.000154072 -0 0.00015405)
(0.000153231 -8.06564e-05 -0 0.000153163 -0 0.000153197)
(0.000151503 -7.97194e-05 -0 0.000151356 -0 0.000151429)
(0.000150566 -7.90308e-05 -0 0.000150481 -0 0.000150523)
(0.000151844 -7.94963e-05 -0 0.000151941 -0 0.000151893)
(0.000154674 -8.09744e-05 -0 0.000154922 -0 0.000154798)
(0.000156755 -8.23046e-05 -0 0.000156974 -0 0.000156865)
(0.00015627 -8.2387e-05 -0 0.000156276 -0 0.000156273)
(0.000153178 -8.09582e-05 -0 0.000152934 -0 0.000153056)
(0.000149437 -7.88652e-05 -0 0.0001491 -0 0.000149269)
(0.000147936 -7.76966e-05 -0 0.000147748 -0 0.000147842)
(0.000149853 -7.83618e-05 -0 0.00014994 -0 0.000149897)
(0.00015355 -8.02166e-05 -0 0.000153841 -0 0.000153695)
(0.000156485 -8.19331e-05 -0 0.000156788 -0 0.000156637)
(0.000157152 -8.25874e-05 -0 0.000157298 -0 0.000157225)
(0.000155605 -8.20317e-05 -0 0.000155545 -0 0.000155575)
(0.00015305 -8.07727e-05 -0 0.000152855 -0 0.000152953)
(0.000150948 -7.95744e-05 -0 0.000150739 -0 0.000150843)
(0.000150187 -7.89909e-05 -0 0.000150063 -0 0.000150125)
(0.000150801 -7.91476e-05 -0 0.000150793 -0 0.000150797)
(0.00015205 -7.97186e-05 -0 0.000152125 -0 0.000152087)
(0.000153242 -8.03395e-05 -0 0.000153349 -0 0.000153295)
(0.000163693 -8.54966e-05 -0 0.000163802 -0 0.000163747)
(0.000163973 -8.57248e-05 -0 0.00016404 -0 0.000164007)
(0.000163687 -8.56651e-05 -0 0.000163692 -0 0.000163689)
(0.000162908 -8.53124e-05 -0 0.000162851 -0 0.000162879)
(0.000161969 -8.48074e-05 -0 0.000161882 -0 0.000161925)
(0.000161503 -8.44865e-05 -0 0.000161448 -0 0.000161475)
(0.000161986 -8.46602e-05 -0 0.000162013 -0 0.000161999)
(0.000163081 -8.52394e-05 -0 0.000163168 -0 0.000163125)
(0.00016366 -8.56461e-05 -0 0.000163711 -0 0.000163685)
(0.000162822 -8.53151e-05 -0 0.000162751 -0 0.000162787)
(0.000161026 -8.43446e-05 -0 0.000160866 -0 0.000160946)
(0.000160066 -8.36469e-05 -0 0.000159967 -0 0.000160017)
(0.00016141 -8.41424e-05 -0 0.00016151 -0 0.00016146)
(0.000164356 -8.567e-05 -0 0.000164626 -0 0.000164491)
(0.000166505 -8.70289e-05 -0 0.000166752 -0 0.000166629)
(0.000165977 -8.70931e-05 -0 0.000165996 -0 0.000165987)
(0.000162751 -8.56041e-05 -0 0.000162491 -0 0.000162621)
(0.000158868 -8.34533e-05 -0 0.000158496 -0 0.000158682)
(0.000157329 -8.22743e-05 -0 0.00015711 -0 0.000157219)
(0.00015934 -8.29829e-05 -0 0.000159421 -0 0.000159381)
(0.000163188 -8.48999e-05 -0 0.000163501 -0 0.000163345)
(0.00016623 -8.66558e-05 -0 0.00016657 -0 0.0001664)
(0.000166908 -8.73082e-05 -0 0.000167083 -0 0.000166995)
(0.00016529 -8.67177e-05 -0 0.000165237 -0 0.000165263)
(0.000162633 -8.54177e-05 -0 0.000162424 -0 0.000162529)
(0.000160452 -8.41939e-05 -0 0.00016022 -0 0.000160336)
(0.000159669 -8.36055e-05 -0 0.000159524 -0 0.000159597)
(0.000160312 -8.37797e-05 -0 0.000160294 -0 0.000160303)
(0.000161612 -8.43736e-05 -0 0.000161689 -0 0.000161651)
(0.000162851 -8.5008e-05 -0 0.000162968 -0 0.000162909)
(0.000171972 -8.92841e-05 -0 0.000172091 -0 0.000172031)
(0.000172259 -8.95119e-05 -0 0.000172335 -0 0.000172297)
(0.000171959 -8.94411e-05 -0 0.000171969 -0 0.000171964)
(0.00017115 -8.9078e-05 -0 0.000171094 -0 0.000171122)
(0.000170182 -8.85619e-05 -0 0.00017009 -0 0.000170136)
(0.000169707 -8.82365e-05 -0 0.000169646 -0 0.000169677)
(0.000170213 -8.84222e-05 -0 0.000170237 -0 0.000170225)
(0.000171342 -8.90205e-05 -0 0.000171433 -0 0.000171387)
(0.000171929 -8.94331e-05 -0 0.000171986 -0 0.000171957)
(0.000171052 -8.90844e-05 -0 0.000170981 -0 0.000171017)
(0.0001692 -8.80844e-05 -0 0.00016903 -0 0.000169115)
(0.000168224 -8.73743e-05 -0 0.000168114 -0 0.000168169)
(0.000169632 -8.79002e-05 -0 0.00016973 -0 0.000169681)
(0.000172678 -8.94765e-05 -0 0.000172962 -0 0.00017282)
(0.000174879 -9.08598e-05 -0 0.00017515 -0 0.000175015)
(0.000174307 -9.09002e-05 -0 0.000174341 -0 0.000174324)
(0.000170958 -8.9358e-05 -0 0.000170691 -0 0.000170825)
(0.000166958 -8.7153e-05 -0 0.00016656 -0 0.000166759)
(0.000165393 -8.5968e-05 -0 0.000165145 -0 0.000165269)
(0.000167493 -8.67247e-05 -0 0.000167562 -0 0.000167527)
(0.000171473 -8.87015e-05 -0 0.000171799 -0 0.000171636)
(0.000174604 -9.04893e-05 -0 0.000174972 -0 0.000174788)
(0.000175287 -9.11334e-05 -0 0.000175488 -0 0.000175387)
(0.000173601 -9.05063e-05 -0 0.000173559 -0 0.00017358)
(0.000170855 -8.9168e-05 -0 0.000170638 -0 0.000170747)
(0.000168609 -8.79219e-05 -0 0.000168359 -0 0.000168484)
(0.000167809 -8.7337e-05 -0 0.000167645 -0 0.000167727)
(0.000168479 -8.75242e-05 -0 0.00016845 -0 0.000168465)
(0.000169826 -8.81414e-05 -0 0.000169901 -0 0.000169863)
(0.000171105 -8.87894e-05 -0 0.000171228 -0 0.000171167)
(0.000179147 -9.24081e-05 -0 0.000179274 -0 0.000179211)
(0.000179437 -9.2632e-05 -0 0.000179521 -0 0.000179479)
(0.000179124 -9.25526e-05 -0 0.000179141 -0 0.000179133)
(0.00017829 -9.21758e-05 -0 0.000178234 -0 0.000178262)
(0.000177296 -9.16511e-05 -0 0.000177201 -0 0.000177249)
(0.000176816 -9.13246e-05 -0 0.000176749 -0 0.000176783)
(0.000177342 -9.15205e-05 -0 0.000177362 -0 0.000177352)
(0.000178502 -9.21362e-05 -0 0.000178593 -0 0.000178547)
(0.000179092 -9.25556e-05 -0 0.000179153 -0 0.000179123)
(0.000178178 -9.21873e-05 -0 0.00017811 -0 0.000178144)
(0.000176277 -9.11602e-05 -0 0.000176102 -0 0.000176189)
(0.000175294 -9.04398e-05 -0 0.000175173 -0 0.000175233)
(0.000176761 -9.0992e-05 -0 0.000176853 -0 0.000176807)
(0.000179894 -9.26137e-05 -0 0.000180186 -0 0.00018004)
(0.000182135 -9.40224e-05 -0 0.000182425 -0 0.00018228)
(0.000181516 -9.40414e-05 -0 0.000181568 -0 0.000181542)
(0.000178058 -9.24438e-05 -0 0.000177794 -0 0.000177926)
(0.000173959 -9.01908e-05 -0 0.000173545 -0 0.000173752)
(0.000172381 -8.90018e-05 -0 0.000172107 -0 0.000172244)
(0.000174563 -8.98009e-05 -0 0.000174615 -0 0.000174589)
(0.000178658 -9.1835e-05 -0 0.000178988 -0 0.000178823)
(0.000181864 -9.36544e-05 -0 0.000182253 -0 0.000182059)
(0.000182545 -9.42911e-05 -0 0.00018277 -0 0.000182657)
(0.000180798 -9.36279e-05 -0 0.00018077 -0 0.000180784)
(0.000177973 -9.22521e-05 -0 0.000177755 -0 0.000177864)
(0.000175672 -9.0983e-05 -0 0.000175409 -0 0.000175541)
(0.000174861 -9.03994e-05 -0 0.00017468 -0 0.000174771)
(0.000175557 -9.06077e-05 -0 0.000175515 -0 0.000175536)
(0.000176943 -9.12419e-05 -0 0.000177014 -0 0.000176979)
(0.000178258 -9.19054e-05 -0 0.000178384 -0 0.000178321)
(0.000185413 -9.50193e-05 -0 0.000185545 -0 0.000185479)
(0.000185706 -9.52414e-05 -0 0.000185797 -0 0.000185751)
(0.00018538 -9.51577e-05 -0 0.000185403 -0 0.000185391)
(0.000184522 -9.47684e-05 -0 0.000184471 -0 0.000184497)
(0.000183508 -9.42303e-05 -0 0.000183412 -0 0.00018346)
(0.000183023 -9.39005e-05 -0 0.000182953 -0 0.000182988)
(0.000183569 -9.41111e-05 -0 0.000183584 -0 0.000183577)
(0.000184753 -9.47393e-05 -0 0.000184843 -0 0.000184798)
(0.000185344 -9.51657e-05 -0 0.000185408 -0 0.000185376)
(0.000184396 -9.47806e-05 -0 0.000184332 -0 0.000184364)
(0.000182455 -9.37262e-05 -0 0.000182279 -0 0.000182367)
(0.000181469 -9.30004e-05 -0 0.00018134 -0 0.000181405)
(0.000182992 -9.35775e-05 -0 0.000183075 -0 0.000183033)
(0.000186199 -9.52425e-05 -0 0.000186493 -0 0.000186346)
(0.00018847 -9.66711e-05 -0 0.000188774 -0 0.000188622)
(0.000187804 -9.66752e-05 -0 0.000187873 -0 0.000187839)
(0.000184248 -9.50224e-05 -0 0.000183993 -0 0.000184121)
(0.000180068 -9.27206e-05 -0 0.000179646 -0 0.000179857)
(0.000178484 -9.15278e-05 -0 0.000178189 -0 0.000178337)
(0.000180742 -9.23669e-05 -0 0.000180773 -0 0.000180758)
(0.00018494 -9.44542e-05 -0 0.000185264 -0 0.000185102)
(0.000188207 -9.63077e-05 -0 0.000188609 -0 0.000188408)
(0.000188881 -9.69377e-05 -0 0.000189129 -0 0.000189005)
(0.000187077 -9.624e-05 -0 0.000187066 -0 0.000187071)
(0.000184183 -9.48246e-05 -0 0.000183971 -0 0.000184077)
(0.000181837 -9.35373e-05 -0 0.000181566 -0 0.000181701)
(0.000181017 -9.29554e-05 -0 0.000180823 -0 0.00018092)
(0.000181738 -9.31818e-05 -0 0.000181683 -0 0.000181711)
(0.000183159 -9.38328e-05 -0 0.000183223 -0 0.000183191)
(0.000184505 -9.45114e-05 -0 0.000184632 -0 0.000184569)
(0.000190921 -9.72309e-05 -0 0.000191056 -0 0.000190989)
(0.000191215 -9.74554e-05 -0 0.000191313 -0 0.000191264)
(0.000190877 -9.73647e-05 -0 0.000190907 -0 0.000190892)
(0.000189999 -9.69635e-05 -0 0.000189953 -0 0.000189976)
(0.000188967 -9.6411e-05 -0 0.000188873 -0 0.00018892)
(0.000188482 -9.60791e-05 -0 0.000188408 -0 0.000188445)
(0.000189044 -9.62994e-05 -0 0.000189054 -0 0.000189049)
(0.000190248 -9.69454e-05 -0 0.000190335 -0 0.000190291)
(0.000190837 -9.73773e-05 -0 0.000190904 -0 0.000190871)
(0.000189858 -9.6977e-05 -0 0.0001898 -0 0.000189829)
(0.000187883 -9.58988e-05 -0 0.00018771 -0 0.000187797)
(0.000186901 -9.51627e-05 -0 0.000186766 -0 0.000186833)
(0.000188474 -9.5766e-05 -0 0.000188546 -0 0.00018851)
(0.000191745 -9.7469e-05 -0 0.000192034 -0 0.000191889)
(0.000194036 -9.89223e-05 -0 0.000194349 -0 0.000194193)
(0.000193324 -9.89051e-05 -0 0.000193411 -0 0.000193367)
(0.000189682 -9.72038e-05 -0 0.000189443 -0 0.000189563)
(0.000185435 -9.48589e-05 -0 0.000185014 -0 0.000185225)
(0.000183854 -9.36576e-05 -0 0.000183541 -0 0.000183697)
(0.000186181 -9.45351e-05 -0 0.000186187 -0 0.000186184)
(0.000190465 -9.66772e-05 -0 0.000190777 -0 0.000190621)
(0.000193782 -9.85611e-05 -0 0.000194191 -0 0.000193987)
(0.000194446 -9.91859e-05 -0 0.000194714 -0 0.00019458)
(0.000192591 -9.84567e-05 -0 0.0001926 -0 0.000192595)
(0.000189637 -9.7005e-05 -0 0.000189436 -0 0.000189537)
(0.000187254 -9.5694e-05 -0 0.000186982 -0 0.000187118)
(0.000186431 -9.51148e-05 -0 0.000186224 -0 0.000186327)
(0.000187173 -9.53545e-05 -0 0.000187104 -0 0.000187139)
(0.000188626 -9.60287e-05 -0 0.00018868 -0 0.000188653)
(0.000189998 -9.67176e-05 -0 0.000190121 -0 0.000190059)
(0.00019579 -9.91274e-05 -0 0.000195926 -0 0.000195858)
(0.000196085 -9.93511e-05 -0 0.000196187 -0 0.000196136)
(0.000195735 -9.92504e-05 -0 0.000195773 -0 0.000195754)
(0.00019484 -9.88413e-05 -0 0.0001948 -0 0.00019482)
(0.000193793 -9.8278e-05 -0 0.000193703 -0 0.000193748)
(0.000193308 -9.7942e-05 -0 0.000193232 -0 0.00019327)
(0.000193886 -9.81684e-05 -0 0.00019389 -0 0.000193888)
(0.000195105 -9.8834e-05 -0 0.000195187 -0 0.000195146)
(0.00019569 -9.92707e-05 -0 0.000195758 -0 0.000195724)
(0.000194685 -9.88588e-05 -0 0.000194634 -0 0.000194659)
(0.000192683 -9.77542e-05 -0 0.000192517 -0 0.0001926)
(0.000191707 -9.70066e-05 -0 0.000191568 -0 0.000191637)
(0.000193325 -9.76318e-05 -0 0.000193383 -0 0.000193354)
(0.000196649 -9.93735e-05 -0 0.000196927 -0 0.000196788)
(0.000198953 -0.000100854 -0 0.00019927 -0 0.000199111)
(0.000198195 -0.000100821 -0 0.000198301 -0 0.000198248)
(0.00019448 -9.90752e-05 -0 0.000194262 -0 0.000194371)
(0.000190181 -9.66824e-05 -0 0.000189769 -0 0.000189975)
(0.000188606 -9.54701e-05 -0 0.00018828 -0 0.000188443)
(0.000190995 -9.63809e-05 -0 0.000190975 -0 0.000190985)
(0.000195353 -9.85785e-05 -0 0.000195645 -0 0.000195499)
(0.000198709 -0.000100494 -0 0.000199118 -0 0.000198913)
(0.000199362 -0.000101114 -0 0.000199646 -0 0.000199504)
(0.00019746 -0.000100358 -0 0.000197492 -0 0.000197476)
(0.000194457 -9.88701e-05 -0 0.000194272 -0 0.000194365)
(0.000192044 -9.75354e-05 -0 0.000191775 -0 0.000191909)
(0.000191218 -9.69523e-05 -0 0.000191002 -0 0.00019111)
(0.00019198 -9.7208e-05 -0 0.000191897 -0 0.000191939)
(0.000193459 -9.79043e-05 -0 0.000193502 -0 0.000193481)
(0.000194854 -9.86073e-05 -0 0.000194972 -0 0.000194913)
(0.000200115 -0.000100766 -0 0.000200249 -0 0.000200182)
(0.000200409 -0.000100988 -0 0.000200515 -0 0.000200462)
(0.00020005 -0.00010088 -0 0.000200094 -0 0.000200072)
(0.000199139 -0.000100458 -0 0.000199108 -0 0.000199123)
(0.000198082 -9.98857e-05 -0 0.000197997 -0 0.000198039)
(0.000197598 -9.95458e-05 -0 0.000197521 -0 0.000197559)
(0.000198188 -9.97803e-05 -0 0.000198185 -0 0.000198187)
(0.00019942 -0.000100462 -0 0.000199494 -0 0.000199457)
(0.000199998 -0.000100905 -0 0.000200066 -0 0.000200032)
(0.000198969 -0.000100484 -0 0.000198928 -0 0.000198949)
(0.000196949 -9.93518e-05 -0 0.000196792 -0 0.000196871)
(0.000195981 -9.85934e-05 -0 0.00019584 -0 0.000195911)
(0.000197638 -9.92321e-05 -0 0.000197682 -0 0.00019766)
(0.000201004 -0.000101018 -0 0.000201267 -0 0.000201135)
(0.000203313 -0.000102521 -0 0.000203629 -0 0.000203471)
(0.000202514 -0.000102482 -0 0.000202638 -0 0.000202576)
(0.000198738 -0.000100693 -0 0.000198547 -0 0.000198643)
(0.000194402 -9.82505e-05 -0 0.000194005 -0 0.000194203)
(0.000192837 -9.70255e-05 -0 0.000192502 -0 0.000192669)
(0.000195276 -9.79666e-05 -0 0.000195228 -0 0.000195252)
(0.000199695 -0.000100213 -0 0.00019996 -0 0.000199827)
(0.000203083 -0.000102168 -0 0.000203484 -0 0.000203283)
(0.000203723 -0.000102786 -0 0.000204021 -0 0.000203872)
(0.000201781 -0.000101998 -0 0.000201836 -0 0.000201809)
(0.000198738 -0.000100481 -0 0.000198573 -0 0.000198655)
(0.000196301 -9.91245e-05 -0 0.000196039 -0 0.00019617)
(0.000195474 -9.85351e-05 -0 0.000195252 -0 0.000195363)
(0.000196253 -9.88062e-05 -0 0.000196155 -0 0.000196204)
(0.000197754 -9.95179e-05 -0 0.000197783 -0 0.000197769)
(0.000199168 -0.000100237 -0 0.000199278 -0 0.000199223)
(0.00020397 -0.000102185 -0 0.000204101 -0 0.000204035)
(0.000204264 -0.000102412 -0 0.000204373 -0 0.000204319)
(0.000203896 -0.0001023 -0 0.000203948 -0 0.000203922)
(0.000202974 -0.000101866 -0 0.000202951 -0 0.000202963)
(0.000201908 -0.000101281 -0 0.00020183 -0 0.000201869)
(0.000201425 -0.000100935 -0 0.000201349 -0 0.000201387)
(0.000202027 -0.000101176 -0 0.000202016 -0 0.000202021)
(0.000203265 -0.000101872 -0 0.000203331 -0 0.000203298)
(0.000203837 -0.000102329 -0 0.000203904 -0 0.000203871)
(0.00020279 -0.000101894 -0 0.000202758 -0 0.000202774)
(0.000200757 -0.000100742 -0 0.000200612 -0 0.000200685)
(0.000199799 -9.99704e-05 -0 0.000199658 -0 0.000199729)
(0.000201489 -0.000100623 -0 0.000201515 -0 0.000201502)
(0.000204886 -0.000102444 -0 0.000205128 -0 0.000205007)
(0.000207196 -0.000103973 -0 0.000207506 -0 0.000207351)
(0.000206359 -0.000103927 -0 0.000206501 -0 0.00020643)
(0.000202534 -0.000102096 -0 0.000202375 -0 0.000202455)
(0.000198172 -9.9614e-05 -0 0.000197799 -0 0.000197985)
(0.000196619 -9.83736e-05 -0 0.000196279 -0 0.000196449)
(0.000199101 -9.93355e-05 -0 0.000199023 -0 0.000199062)
(0.000203567 -0.000101626 -0 0.0002038 -0 0.000203683)
(0.000206977 -0.000103619 -0 0.000207364 -0 0.000207171)
(0.000207606 -0.000104246 -0 0.000207914 -0 0.00020776)
(0.000205631 -0.000103434 -0 0.000205711 -0 0.000205671)
(0.000202556 -0.000101882 -0 0.000202415 -0 0.000202485)
(0.000200102 -0.0001005 -0 0.000199852 -0 0.000199977)
(0.000199275 -9.99079e-05 -0 0.000199049 -0 0.000199162)
(0.000200067 -0.000100187 -0 0.000199955 -0 0.000200011)
(0.000201586 -0.000100916 -0 0.000201599 -0 0.000201593)
(0.000203014 -0.000101647 -0 0.000203114 -0 0.000203064)
(0.000207419 -0.000103429 -0 0.000207544 -0 0.000207481)
(0.000207712 -0.000103654 -0 0.000207823 -0 0.000207767)
(0.000207338 -0.000103544 -0 0.000207396 -0 0.000207367)
(0.000206405 -0.000103101 -0 0.000206393 -0 0.000206399)