/*--------------------------------*- C++ -*----------------------------------*\
| =========                 |                                                 |
| \\      /  F ield         | OpenFOAM: The Open Source CFD Toolbox           |
|  \\    /   O peration     | Version:  v1912                                 |
|   \\  /    A nd           | Website:  www.openfoam.com                      |
|    \\/     M anipulation  |                                                 |
\*---------------------------------------------------------------------------*/
FoamFile
{
    version     2.0;
    format      ascii;
    class       volVectorField;
    location    "31187";
    object      U;
}
// * * * * * * * * * * * * * * * * * * * * * * * * * * * * * * * * * * * * * //

dimensions      [0 1 -1 0 0 0 0];


internalField   nonuniform List<vector> 
9000
(
(0.00286402 -1.13043e-08 0)
(0.00286951 -4.05534e-09 0)
(0.00287019 3.94385e-09 0)
(0.00286573 1.03459e-08 0)
(0.00285787 1.11558e-08 0)
(0.00285149 3.81315e-09 0)
(0.00285214 -7.42567e-09 0)
(0.00286004 -1.20163e-08 0)
(0.00286752 -2.88243e-09 0)
(0.00286494 1.37637e-08 0)
(0.00285117 2.07225e-08 0)
(0.00283817 5.68871e-09 0)
(0.00284171 -2.18563e-08 0)
(0.00286351 -3.61951e-08 0)
(0.00288738 -2.20308e-08 0)
(0.0028942 1.23328e-08 0)
(0.00287582 4.32318e-08 0)
(0.00284186 4.56296e-08 0)
(0.00281713 1.38514e-08 0)
(0.00282067 -2.72561e-08 0)
(0.00284764 -4.67397e-08 0)
(0.00287821 -3.60041e-08 0)
(0.0028948 -7.44839e-09 0)
(0.00289111 2.00647e-08 0)
(0.00287268 3.26162e-08 0)
(0.00285144 2.70898e-08 0)
(0.00283797 1.02042e-08 0)
(0.00283675 -6.61831e-09 0)
(0.00284437 -1.5338e-08 0)
(0.00285475 -1.58738e-08 0)
(0.00860451 -2.04275e-07 0)
(0.00862082 -8.33128e-08 0)
(0.00862289 5.57041e-08 0)
(0.00860968 1.7378e-07 0)
(0.00858631 1.9828e-07 0)
(0.00856735 7.74035e-08 0)
(0.00856929 -1.21995e-07 0)
(0.00859288 -2.14903e-07 0)
(0.0086152 -6.53614e-08 0)
(0.00860751 2.31753e-07 0)
(0.00856637 3.73378e-07 0)
(0.00852754 1.26746e-07 0)
(0.00853804 -3.59878e-07 0)
(0.00860298 -6.38731e-07 0)
(0.00867411 -4.22123e-07 0)
(0.0086945 1.71506e-07 0)
(0.00863989 7.36938e-07 0)
(0.00853878 8.16623e-07 0)
(0.00846512 2.85831e-07 0)
(0.00847564 -4.36313e-07 0)
(0.00855587 -8.06951e-07 0)
(0.00864667 -6.535e-07 0)
(0.00869594 -1.70777e-07 0)
(0.00868505 3.16926e-07 0)
(0.00863036 5.56936e-07 0)
(0.00856731 4.82097e-07 0)
(0.00852733 1.99501e-07 0)
(0.00852372 -9.4509e-08 0)
(0.00854629 -2.54169e-07 0)
(0.00857703 -2.74501e-07 0)
(0.0141929 -6.00364e-07 0)
(0.0142189 -2.51352e-07 0)
(0.0142228 1.5362e-07 0)
(0.0142028 5.01858e-07 0)
(0.0141665 5.80152e-07 0)
(0.0141365 2.32856e-07 0)
(0.0141389 -3.50013e-07 0)
(0.0141754 -6.28886e-07 0)
(0.0142107 -2.00099e-07 0)
(0.0141995 6.69097e-07 0)
(0.0141356 1.09533e-06 0)
(0.0140741 3.87685e-07 0)
(0.014089 -1.03402e-06 0)
(0.0141895 -1.86481e-06 0)
(0.0143012 -1.25402e-06 0)
(0.0143352 4.69844e-07 0)
(0.0142522 2.13496e-06 0)
(0.0140946 2.39573e-06 0)
(0.0139774 8.65288e-07 0)
(0.0139913 -1.24507e-06 0)
(0.014115 -2.34592e-06 0)
(0.0142569 -1.92077e-06 0)
(0.0143355 -5.25594e-07 0)
(0.0143208 9.00142e-07 0)
(0.0142369 1.61524e-06 0)
(0.0141384 1.41308e-06 0)
(0.0140749 5.97411e-07 0)
(0.0140679 -2.60831e-07 0)
(0.0141023 -7.32288e-07 0)
(0.0141499 -7.98895e-07 0)
(0.0192761 -1.16391e-06 0)
(0.0193092 -5.01393e-07 0)
(0.0193155 2.75368e-07 0)
(0.0192923 9.51674e-07 0)
(0.0192483 1.11665e-06 0)
(0.0192108 4.62837e-07 0)
(0.0192123 -6.56371e-07 0)
(0.019256 -1.20763e-06 0)
(0.0192998 -4.03278e-07 0)
(0.0192881 1.26545e-06 0)
(0.019211 2.11045e-06 0)
(0.019134 7.81314e-07 0)
(0.0191487 -1.94785e-06 0)
(0.0192695 -3.57692e-06 0)
(0.0194076 -2.45127e-06 0)
(0.019454 8.3434e-07 0)
(0.0193575 4.06036e-06 0)
(0.0191655 4.6274e-06 0)
(0.0190176 1.73423e-06 0)
(0.0190283 -2.32547e-06 0)
(0.0191761 -4.48329e-06 0)
(0.0193503 -3.71815e-06 0)
(0.0194506 -1.07105e-06 0)
(0.0194377 1.67166e-06 0)
(0.0193382 3.08008e-06 0)
(0.0192176 2.73105e-06 0)
(0.0191372 1.18529e-06 0)
(0.0191254 -4.65563e-07 0)
(0.0191653 -1.38627e-06 0)
(0.0192229 -1.53146e-06 0)
(0.0236843 -1.83063e-06 0)
(0.0237217 -8.14133e-07 0)
(0.0237305 3.92087e-07 0)
(0.0237072 1.45652e-06 0)
(0.0236604 1.73905e-06 0)
(0.023619 7.47855e-07 0)
(0.0236186 -9.8906e-07 0)
(0.0236643 -1.87317e-06 0)
(0.0237123 -6.5957e-07 0)
(0.0237022 1.92856e-06 0)
(0.0236207 3.28701e-06 0)
(0.0235358 1.27834e-06 0)
(0.0235471 -2.95636e-06 0)
(0.0236744 -5.54751e-06 0)
(0.023825 -3.88452e-06 0)
(0.023881 1.17398e-06 0)
(0.0237835 6.23408e-06 0)
(0.023578 7.23533e-06 0)
(0.0234129 2.82888e-06 0)
(0.0234161 -3.48977e-06 0)
(0.0235704 -6.92628e-06 0)
(0.023759 -5.8342e-06 0)
(0.0238727 -1.77919e-06 0)
(0.0238655 2.49293e-06 0)
(0.0237623 4.74701e-06 0)
(0.0236321 4.27791e-06 0)
(0.0235419 1.91488e-06 0)
(0.0235249 -6.563e-07 0)
(0.023565 -2.11781e-06 0)
(0.0236261 -2.37676e-06 0)
(0.0274735 -2.5537e-06 0)
(0.0275131 -1.17325e-06 0)
(0.0275242 4.86471e-07 0)
(0.0275024 1.97113e-06 0)
(0.0274558 2.39793e-06 0)
(0.0274131 1.07112e-06 0)
(0.0274106 -1.31383e-06 0)
(0.0274552 -2.56974e-06 0)
(0.0275043 -9.53901e-07 0)
(0.0274966 2.59697e-06 0)
(0.027416 4.52958e-06 0)
(0.0273285 1.85032e-06 0)
(0.0273355 -3.96397e-06 0)
(0.027461 -7.61695e-06 0)
(0.0276148 -5.45507e-06 0)
(0.0276774 1.43763e-06 0)
(0.0275855 8.46601e-06 0)
(0.0273797 1.00169e-05 0)
(0.0272073 4.09052e-06 0)
(0.0272018 -4.61446e-06 0)
(0.0273523 -9.47096e-06 0)
(0.0275437 -8.11583e-06 0)
(0.0276643 -2.62049e-06 0)
(0.027664 3.27594e-06 0)
(0.0275641 6.47499e-06 0)
(0.0274324 5.93839e-06 0)
(0.0273376 2.74604e-06 0)
(0.0273157 -8.00657e-07 0)
(0.0273531 -2.85975e-06 0)
(0.0274139 -3.26766e-06 0)
(0.0307704 -3.30453e-06 0)
(0.0308109 -1.5662e-06 0)
(0.0308238 5.5219e-07 0)
(0.0308042 2.47199e-06 0)
(0.0307595 3.06463e-06 0)
(0.0307171 1.41976e-06 0)
(0.0307126 -1.61465e-06 0)
(0.0307547 -3.26565e-06 0)
(0.030803 -1.27336e-06 0)
(0.0307977 3.24058e-06 0)
(0.0307208 5.78305e-06 0)
(0.030634 2.4733e-06 0)
(0.0306366 -4.92492e-06 0)
(0.0307561 -9.69629e-06 0)
(0.0309078 -7.0986e-06 0)
(0.0309745 1.61033e-06 0)
(0.030891 1.06571e-05 0)
(0.0306921 1.28523e-05 0)
(0.0305189 5.47121e-06 0)
(0.030505 -5.64226e-06 0)
(0.0306463 -1.20055e-05 0)
(0.0308339 -1.04704e-05 0)
(0.0309572 -3.56648e-06 0)
(0.0309637 3.98151e-06 0)
(0.0308705 8.18792e-06 0)
(0.0307419 7.64352e-06 0)
(0.0306459 3.64884e-06 0)
(0.0306198 -8.86417e-07 0)
(0.0306531 -3.57705e-06 0)
(0.0307114 -4.16619e-06 0)
(0.0336887 -4.06428e-06 0)
(0.0337291 -1.98315e-06 0)
(0.0337435 5.87693e-07 0)
(0.0337265 2.94642e-06 0)
(0.0336845 3.7216e-06 0)
(0.0336432 1.78393e-06 0)
(0.0336371 -1.88428e-06 0)
(0.0336757 -3.9422e-06 0)
(0.0337223 -1.60765e-06 0)
(0.0337193 3.84446e-06 0)
(0.0336475 7.01429e-06 0)
(0.0335633 3.12839e-06 0)
(0.0335619 -5.81718e-06 0)
(0.0336732 -1.17332e-05 0)
(0.0338196 -8.7713e-06 0)
(0.0338887 1.6916e-06 0)
(0.0338147 1.27535e-05 0)
(0.0336266 1.56668e-05 0)
(0.0334565 6.93283e-06 0)
(0.033435 -6.54764e-06 0)
(0.0335646 -1.44651e-05 0)
(0.0337446 -1.28377e-05 0)
(0.0338679 -4.59217e-06 0)
(0.0338805 4.59283e-06 0)
(0.0337956 9.84238e-06 0)
(0.0336728 9.34934e-06 0)
(0.0335776 4.60025e-06 0)
(0.0335482 -9.10615e-07 0)
(0.0335769 -4.25066e-06 0)
(0.0336315 -5.0493e-06 0)
(0.0363137 -4.81995e-06 0)
(0.0363536 -2.41661e-06 0)
(0.036369 5.93131e-07 0)
(0.0363547 3.38698e-06 0)
(0.0363159 4.35748e-06 0)
(0.0362763 2.15624e-06 0)
(0.0362688 -2.1194e-06 0)
(0.0363037 -4.58783e-06 0)
(0.0363478 -1.94909e-06 0)
(0.0363469 4.40075e-06 0)
(0.0362809 8.20244e-06 0)
(0.0362005 3.80145e-06 0)
(0.0361955 -6.62945e-06 0)
(0.0362977 -1.3695e-05 0)
(0.0364369 -1.04428e-05 0)
(0.036507 1.68524e-06 0)
(0.0364429 1.47237e-05 0)
(0.0362676 1.84118e-05 0)
(0.0361031 8.44633e-06 0)
(0.036075 -7.31896e-06 0)
(0.0361918 -1.681e-05 0)
(0.0363619 -1.51773e-05 0)
(0.0364832 -5.67751e-06 0)
(0.0365014 5.10258e-06 0)
(0.0364254 1.14117e-05 0)
(0.0363099 1.10263e-05 0)
(0.0362171 5.58282e-06 0)
(0.0361849 -8.7372e-07 0)
(0.0362087 -4.86946e-06 0)
(0.0362591 -5.90206e-06 0)
(0.0387075 -5.56229e-06 0)
(0.0387463 -2.86081e-06 0)
(0.0387627 5.69345e-07 0)
(0.0387509 3.78928e-06 0)
(0.0387155 4.96474e-06 0)
(0.0386781 2.53116e-06 0)
(0.0386694 -2.31873e-06 0)
(0.0387005 -5.19523e-06 0)
(0.0387417 -2.29193e-06 0)
(0.0387426 4.90544e-06 0)
(0.0386827 9.33409e-06 0)
(0.0386069 4.48199e-06 0)
(0.0385987 -7.35611e-06 0)
(0.0386912 -1.55607e-05 0)
(0.0388223 -1.20918e-05 0)
(0.0388924 1.59634e-06 0)
(0.0388379 1.65488e-05 0)
(0.0386767 2.10547e-05 0)
(0.0385194 9.98962e-06 0)
(0.0384855 -7.95166e-06 0)
(0.038589 -1.90147e-05 0)
(0.038748 -1.74607e-05 0)
(0.0388661 -6.80667e-06 0)
(0.0388892 5.50818e-06 0)
(0.0388224 1.2879e-05 0)
(0.038715 1.26541e-05 0)
(0.0386254 6.58324e-06 0)
(0.0385912 -7.77616e-07 0)
(0.0386101 -5.42677e-06 0)
(0.0386559 -6.71445e-06 0)
(0.0409151 -6.28448e-06 0)
(0.0409526 -3.31116e-06 0)
(0.0409697 5.17514e-07 0)
(0.0409605 4.15069e-06 0)
(0.0409285 5.53821e-06 0)
(0.0408934 2.90434e-06 0)
(0.0408838 -2.48213e-06 0)
(0.0409111 -5.75973e-06 0)
(0.0409492 -2.63173e-06 0)
(0.0409517 5.35671e-06 0)
(0.0408979 1.04004e-05 0)
(0.0408272 5.16191e-06 0)
(0.0408163 -7.99479e-06 0)
(0.0408991 -1.73168e-05 0)
(0.0410212 -1.37026e-05 0)
(0.0410906 1.43045e-06 0)
(0.0410455 1.82177e-05 0)
(0.0408987 2.3573e-05 0)
(0.0407498 1.15453e-05 0)
(0.040711 -8.44518e-06 0)
(0.0408012 -2.10627e-05 0)
(0.0409483 -1.96676e-05 0)
(0.0410622 -7.96673e-06 0)
(0.0410896 5.80967e-06 0)
(0.0410319 1.42336e-05 0)
(0.0409332 1.4218e-05 0)
(0.0408475 7.59096e-06 0)
(0.0408116 -6.24894e-07 0)
(0.0408259 -5.91862e-06 0)
(0.0408669 -7.47949e-06 0)
(0.0429702 -6.98119e-06 0)
(0.0430061 -3.76382e-06 0)
(0.0430236 4.3902e-07 0)
(0.0430168 4.46972e-06 0)
(0.0429884 6.0742e-06 0)
(0.0429558 3.27225e-06 0)
(0.0429454 -2.61015e-06 0)
(0.042969 -6.27826e-06 0)
(0.0430039 -2.96495e-06 0)
(0.0430078 5.75407e-06 0)
(0.0429601 1.13956e-05 0)
(0.0428945 5.83469e-06 0)
(0.0428813 -8.5451e-06 0)
(0.0429545 -1.89538e-05 0)
(0.0430675 -1.52632e-05 0)
(0.0431354 1.19326e-06 0)
(0.0430993 1.9724e-05 0)
(0.0429671 2.59507e-05 0)
(0.0428272 1.30989e-05 0)
(0.0427844 -8.8014e-06 0)
(0.0428616 -2.29432e-05 0)
(0.0429964 -2.17825e-05 0)
(0.0431054 -9.14666e-06 0)
(0.0431364 6.00869e-06 0)
(0.0430877 1.54682e-05 0)
(0.0429978 1.57071e-05 0)
(0.0429166 8.5972e-06 0)
(0.0428794 -4.18562e-07 0)
(0.0428893 -6.34273e-06 0)
(0.0429255 -8.19214e-06 0)
(0.044898 -7.64811e-06 0)
(0.0449321 -4.21542e-06 0)
(0.0449499 3.35388e-07 0)
(0.0449454 4.74561e-06 0)
(0.0449205 6.57002e-06 0)
(0.0448905 3.63189e-06 0)
(0.0448795 -2.70379e-06 0)
(0.0448995 -6.74888e-06 0)
(0.0449312 -3.28859e-06 0)
(0.0449362 6.0979e-06 0)
(0.0448944 1.23154e-05 0)
(0.0448342 6.49486e-06 0)
(0.044819 -9.00792e-06 0)
(0.0448829 -2.04656e-05 0)
(0.0449865 -1.67641e-05 0)
(0.0450526 8.90561e-07 0)
(0.0450249 2.10644e-05 0)
(0.0449071 2.81758e-05 0)
(0.0447768 1.46383e-05 0)
(0.0447306 -9.02385e-06 0)
(0.0447952 -2.4649e-05 0)
(0.0449176 -2.37933e-05 0)
(0.0450212 -1.03367e-05 0)
(0.0450553 6.10795e-06 0)
(0.0450152 1.65783e-05 0)
(0.0449342 1.71131e-05 0)
(0.0448577 9.5944e-06 0)
(0.0448198 -1.61931e-07 0)
(0.0448254 -6.69798e-06 0)
(0.0448569 -8.84867e-06 0)
(0.0467181 -8.28164e-06 0)
(0.0467503 -4.66294e-06 0)
(0.0467683 2.08261e-07 0)
(0.0467659 4.97815e-06 0)
(0.0467444 7.0237e-06 0)
(0.046717 3.98062e-06 0)
(0.0467057 -2.76436e-06 0)
(0.0467221 -7.17038e-06 0)
(0.0467506 -3.60011e-06 0)
(0.0467566 6.38918e-06 0)
(0.0467205 1.31573e-05 0)
(0.0466657 7.13767e-06 0)
(0.0466489 -9.38508e-06 0)
(0.0467038 -2.18479e-05 0)
(0.046798 -1.81973e-05 0)
(0.0468619 5.28254e-07 0)
(0.046842 2.22377e-05 0)
(0.0467383 3.02395e-05 0)
(0.0466178 1.61524e-05 0)
(0.046569 -9.11727e-06 0)
(0.0466215 -2.61757e-05 0)
(0.0467316 -2.56901e-05 0)
(0.0468294 -1.15281e-05 0)
(0.046866 6.11096e-06 0)
(0.0468341 1.75612e-05 0)
(0.046762 1.8429e-05 0)
(0.0466906 1.05758e-05 0)
(0.0466522 1.41443e-07 0)
(0.0466538 -6.98409e-06 0)
(0.0466807 -9.44627e-06 0)
(0.0484459 -8.8787e-06 0)
(0.0484762 -5.10357e-06 0)
(0.0484942 5.9399e-08 0)
(0.0484938 5.16755e-06 0)
(0.0484755 7.43376e-06 0)
(0.0484508 4.31609e-06 0)
(0.0484392 -2.79341e-06 0)
(0.0484524 -7.54211e-06 0)
(0.0484777 -3.89722e-06 0)
(0.0484844 6.62932e-06 0)
(0.0484538 1.39195e-05 0)
(0.0484044 7.75889e-06 0)
(0.0483864 -9.67907e-06 0)
(0.0484326 -2.30979e-05 0)
(0.0485175 -1.95562e-05 0)
(0.0485787 1.1235e-07 0)
(0.0485661 2.32445e-05 0)
(0.0484762 3.21351e-05 0)
(0.0483657 1.76312e-05 0)
(0.0483149 -9.08732e-06 0)
(0.048356 -2.75206e-05 0)
(0.0484538 -2.74648e-05 0)
(0.0485455 -1.27124e-05 0)
(0.0485842 6.02186e-06 0)
(0.0485601 1.84155e-05 0)
(0.0484966 1.96496e-05 0)
(0.0484304 1.15353e-05 0)
(0.0483919 4.87781e-07 0)
(0.0483899 -7.20145e-06 0)
(0.0484122 -9.98288e-06 0)
(0.0500939 -9.43662e-06 0)
(0.0501221 -5.53464e-06 0)
(0.0501399 -1.09338e-07 0)
(0.0501414 5.31435e-06 0)
(0.0501263 7.79917e-06 0)
(0.0501042 4.63613e-06 0)
(0.0500925 -2.79268e-06 0)
(0.0501026 -7.86387e-06 0)
(0.0501247 -4.1779e-06 0)
(0.0501321 6.82009e-06 0)
(0.0501066 1.46009e-05 0)
(0.0500625 8.35463e-06 0)
(0.0500436 -9.89292e-06 0)
(0.0500816 -2.42141e-05 0)
(0.0501574 -2.0835e-05 0)
(0.0502157 -3.51018e-07 0)
(0.0502098 2.40867e-05 0)
(0.050133 3.38576e-05 0)
(0.0500325 1.90655e-05 0)
(0.0499804 -8.94047e-06 0)
(0.0500108 -2.86828e-05 0)
(0.0500966 -2.91106e-05 0)
(0.0501819 -1.38818e-05 0)
(0.0502222 5.84534e-06 0)
(0.0502054 1.91408e-05 0)
(0.0501504 2.07704e-05 0)
(0.0500895 1.2467e-05 0)
(0.0500512 8.73095e-07 0)
(0.0500459 -7.35102e-06 0)
(0.0500639 -1.0457e-05 0)
(0.051672 -9.95304e-06 0)
(0.0516981 -5.95363e-06 0)
(0.0517156 -2.95988e-07 0)
(0.0517187 5.41937e-06 0)
(0.0517066 8.1192e-06 0)
(0.0516872 4.93876e-06 0)
(0.0516755 -2.76403e-06 0)
(0.0516828 -8.13578e-06 0)
(0.0517018 -4.44028e-06 0)
(0.0517096 6.96349e-06 0)
(0.0516889 1.5201e-05 0)
(0.0516501 8.92133e-06 0)
(0.0516305 -1.00301e-05 0)
(0.0516609 -2.51957e-05 0)
(0.0517276 -2.20283e-05 0)
(0.0517828 -8.55598e-07 0)
(0.051783 2.47671e-05 0)
(0.0517188 3.54033e-05 0)
(0.0516284 2.04467e-05 0)
(0.0515756 -8.68384e-06 0)
(0.0515959 -2.96627e-05 0)
(0.0516701 -3.06217e-05 0)
(0.0517488 -1.50288e-05 0)
(0.0517901 5.58655e-06 0)
(0.0517803 1.97378e-05 0)
(0.0517335 2.17877e-05 0)
(0.0516779 1.33657e-05 0)
(0.0516402 1.2932e-06 0)
(0.0516318 -7.43419e-06 0)
(0.0516456 -1.08675e-05 0)
(0.0531884 -1.04259e-05 0)
(0.0532124 -6.35807e-06 0)
(0.0532295 -4.98498e-07 0)
(0.0532341 5.48365e-06 0)
(0.0532249 8.39339e-06 0)
(0.053208 5.22213e-06 0)
(0.0531965 -2.70948e-06 0)
(0.0532011 -8.35825e-06 0)
(0.0532172 -4.68268e-06 0)
(0.0532252 7.06175e-06 0)
(0.0532091 1.57199e-05 0)
(0.0531754 9.45564e-06 0)
(0.0531555 -1.00944e-05 0)
(0.0531786 -2.6043e-05 0)
(0.0532366 -2.31319e-05 0)
(0.0532884 -1.39503e-06 0)
(0.053294 2.52897e-05 0)
(0.0532419 3.67696e-05 0)
(0.0531615 2.17664e-05 0)
(0.0531085 -8.32508e-06 0)
(0.0531194 -3.04616e-05 0)
(0.0531823 -3.19932e-05 0)
(0.0532544 -1.61461e-05 0)
(0.0532964 5.25104e-06 0)
(0.0532929 2.02078e-05 0)
(0.053254 2.26988e-05 0)
(0.0532039 1.42261e-05 0)
(0.0531669 1.74376e-06 0)
(0.0531558 -7.45277e-06 0)
(0.0531656 -1.12138e-05 0)
(0.0546502 -1.08533e-05 0)
(0.0546719 -6.7456e-06 0)
(0.0546886 -7.14732e-07 0)
(0.0546945 5.50847e-06 0)
(0.054688 8.62157e-06 0)
(0.0546736 5.48451e-06 0)
(0.0546624 -2.63115e-06 0)
(0.0546646 -8.53195e-06 0)
(0.0546777 -4.90354e-06 0)
(0.0546859 7.11728e-06 0)
(0.0546741 1.6158e-05 0)
(0.0546453 9.95444e-06 0)
(0.0546253 -1.009e-05 0)
(0.0546417 -2.67565e-05 0)
(0.0546912 -2.41414e-05 0)
(0.0547394 -1.96288e-06 0)
(0.0547499 2.56588e-05 0)
(0.0547093 3.79551e-05 0)
(0.0546386 2.30169e-05 0)
(0.0545861 -7.87237e-06 0)
(0.0545884 -3.10819e-05 0)
(0.0546403 -3.3221e-05 0)
(0.0547057 -1.72266e-05 0)
(0.0547479 4.84472e-06 0)
(0.0547502 2.05529e-05 0)
(0.054719 2.35011e-05 0)
(0.0546742 1.50434e-05 0)
(0.0546383 2.22023e-06 0)
(0.0546248 -7.40895e-06 0)
(0.0546309 -1.14956e-05 0)
(0.056063 -1.12336e-05 0)
(0.0560825 -7.1139e-06 0)
(0.0560985 -9.42476e-07 0)
(0.0561056 5.4953e-06 0)
(0.0561016 8.80377e-06 0)
(0.0560897 5.72431e-06 0)
(0.056079 -2.53121e-06 0)
(0.0560789 -8.6578e-06 0)
(0.0560892 -5.10146e-06 0)
(0.0560974 7.1326e-06 0)
(0.0560895 1.65161e-05 0)
(0.0560656 1.04148e-05 0)
(0.0560458 -1.00213e-05 0)
(0.0560559 -2.73377e-05 0)
(0.0560972 -2.50535e-05 0)
(0.0561416 -2.55263e-06 0)
(0.0561565 2.58798e-05 0)
(0.0561266 3.8959e-05 0)
(0.0560656 2.41906e-05 0)
(0.056014 -7.33431e-06 0)
(0.0560084 -3.15268e-05 0)
(0.0560499 -3.43017e-05 0)
(0.0561085 -1.82634e-05 0)
(0.0561504 4.37384e-06 0)
(0.0561581 2.07758e-05 0)
(0.0561341 2.41931e-05 0)
(0.0560948 1.5813e-05 0)
(0.0560602 2.71796e-06 0)
(0.0560445 -7.30524e-06 0)
(0.0560471 -1.17129e-05 0)
(0.0574318 -1.15654e-05 0)
(0.0574491 -7.46075e-06 0)
(0.0574644 -1.17945e-06 0)
(0.0574725 5.44578e-06 0)
(0.0574709 8.94025e-06 0)
(0.0574614 5.94005e-06 0)
(0.0574511 -2.41196e-06 0)
(0.057449 -8.73691e-06 0)
(0.0574566 -5.27519e-06 0)
(0.0574647 7.11041e-06 0)
(0.0574604 1.67952e-05 0)
(0.0574412 1.08342e-05 0)
(0.0574217 -9.89288e-06 0)
(0.0574261 -2.77884e-05 0)
(0.0574595 -2.58648e-05 0)
(0.0575001 -3.15774e-06 0)
(0.0575187 2.59585e-05 0)
(0.0574989 3.97814e-05 0)
(0.0574474 2.52806e-05 0)
(0.0573972 -6.71987e-06 0)
(0.0573844 -3.18004e-05 0)
(0.0574158 -3.52326e-05 0)
(0.0574677 -1.92499e-05 0)
(0.0575091 3.84492e-06 0)
(0.0575216 2.08797e-05 0)
(0.0575045 2.47736e-05 0)
(0.0574705 1.65303e-05 0)
(0.0574374 3.23217e-06 0)
(0.0574199 -7.14449e-06 0)
(0.0574192 -1.18662e-05 0)
(0.0587608 -1.18476e-05 0)
(0.0587759 -7.78399e-06 0)
(0.0587904 -1.42331e-06 0)
(0.0587993 5.36172e-06 0)
(0.0587999 9.03148e-06 0)
(0.0587927 6.13039e-06 0)
(0.0587831 -2.27574e-06 0)
(0.0587791 -8.77062e-06 0)
(0.0587842 -5.42361e-06 0)
(0.058792 7.05346e-06 0)
(0.0587911 1.69969e-05 0)
(0.0587763 1.12099e-05 0)
(0.0587575 -9.70952e-06 0)
(0.0587565 -2.8111e-05 0)
(0.0587824 -2.65728e-05 0)
(0.058819 -3.77165e-06 0)
(0.0588409 2.59013e-05 0)
(0.0588304 4.04234e-05 0)
(0.0587881 2.62802e-05 0)
(0.0587398 -6.03835e-06 0)
(0.0587206 -3.19074e-05 0)
(0.0587425 -3.60116e-05 0)
(0.0587875 -2.01796e-05 0)
(0.058828 3.26477e-06 0)
(0.0588448 2.08684e-05 0)
(0.0588343 2.52417e-05 0)
(0.0588056 1.71912e-05 0)
(0.0587742 3.75796e-06 0)
(0.0587552 -6.92985e-06 0)
(0.0587514 -1.19562e-05 0)
(0.0600537 -1.20791e-05 0)
(0.0600666 -8.08155e-06 0)
(0.0600802 -1.67167e-06 0)
(0.0600898 5.2451e-06 0)
(0.0600924 9.07815e-06 0)
(0.0600875 6.29412e-06 0)
(0.0600785 -2.12493e-06 0)
(0.0600729 -8.76046e-06 0)
(0.0600756 -5.54576e-06 0)
(0.060083 6.96464e-06 0)
(0.0600852 1.71228e-05 0)
(0.0600746 1.15398e-05 0)
(0.0600566 -9.47625e-06 0)
(0.0600509 -2.83085e-05 0)
(0.0600695 -2.71751e-05 0)
(0.060102 -4.38783e-06 0)
(0.0601267 2.57151e-05 0)
(0.0601249 4.08868e-05 0)
(0.0600916 2.71833e-05 0)
(0.0600455 -5.29935e-06 0)
(0.0600206 -3.18536e-05 0)
(0.0600334 -3.66373e-05 0)
(0.0600718 -2.10463e-05 0)
(0.060111 2.64042e-06 0)
(0.0601316 2.07462e-05 0)
(0.0601272 2.55975e-05 0)
(0.0601036 1.77919e-05 0)
(0.0600742 4.29038e-06 0)
(0.060054 -6.66474e-06 0)
(0.0600474 -1.19838e-05 0)
(0.0613137 -1.22592e-05 0)
(0.0613243 -8.35147e-06 0)
(0.061337 -1.92211e-06 0)
(0.0613471 5.09807e-06 0)
(0.0613516 9.08114e-06 0)
(0.0613488 6.43016e-06 0)
(0.0613405 -1.96197e-06 0)
(0.0613335 -8.70816e-06 0)
(0.0613339 -5.64084e-06 0)
(0.0613409 6.84688e-06 0)
(0.0613458 1.71751e-05 0)
(0.0613393 1.1822e-05 0)
(0.0613223 -9.1982e-06 0)
(0.0613122 -2.83843e-05 0)
(0.061324 -2.767e-05 0)
(0.0613524 -4.99977e-06 0)
(0.0613793 2.54074e-05 0)
(0.0613856 4.1174e-05 0)
(0.0613608 2.79842e-05 0)
(0.0613174 -4.51268e-06 0)
(0.0612874 -3.16451e-05 0)
(0.0612918 -3.7109e-05 0)
(0.0613235 -2.18441e-05 0)
(0.0613611 1.97909e-06 0)
(0.0613851 2.0518e-05 0)
(0.0613865 2.58413e-05 0)
(0.0613679 1.83285e-05 0)
(0.0613406 4.82438e-06 0)
(0.0613194 -6.35286e-06 0)
(0.0613102 -1.19504e-05 0)
(0.0625434 -1.23874e-05 0)
(0.0625519 -8.59186e-06 0)
(0.0625635 -2.17216e-06 0)
(0.0625741 4.9229e-06 0)
(0.0625803 9.04156e-06 0)
(0.0625794 6.53757e-06 0)
(0.062572 -1.78933e-06 0)
(0.0625637 -8.61564e-06 0)
(0.0625621 -5.7082e-06 0)
(0.0625685 6.70321e-06 0)
(0.0625759 1.71561e-05 0)
(0.0625732 1.20546e-05 0)
(0.0625574 -8.88063e-06 0)
(0.0625434 -2.83423e-05 0)
(0.0625486 -2.80561e-05 0)
(0.062573 -5.60104e-06 0)
(0.0626015 2.49861e-05 0)
(0.0626152 4.12884e-05 0)
(0.0625987 2.86778e-05 0)
(0.0625583 -3.68835e-06 0)
(0.062524 -3.1289e-05 0)
(0.0625204 -3.74268e-05 0)
(0.0625456 -2.25673e-05 0)
(0.0625813 1.28819e-06 0)
(0.0626082 2.01891e-05 0)
(0.0626149 2.59738e-05 0)
(0.0626012 1.87977e-05 0)
(0.0625761 5.3549e-06 0)
(0.0625543 -5.99817e-06 0)
(0.0625428 -1.18576e-05 0)
(0.0637455 -1.24634e-05 0)
(0.0637518 -8.80098e-06 0)
(0.0637623 -2.41936e-06 0)
(0.0637732 4.722e-06 0)
(0.0637809 8.96071e-06 0)
(0.0637819 6.61559e-06 0)
(0.0637754 -1.60951e-06 0)
(0.063766 -8.48499e-06 0)
(0.0637624 -5.74736e-06 0)
(0.0637682 6.53668e-06 0)
(0.0637778 1.70685e-05 0)
(0.0637787 1.22362e-05 0)
(0.0637642 -8.52894e-06 0)
(0.0637468 -2.81869e-05 0)
(0.063746 -2.83326e-05 0)
(0.0637662 -6.18532e-06 0)
(0.063796 2.44594e-05 0)
(0.0638163 4.12341e-05 0)
(0.0638078 2.92593e-05 0)
(0.0637706 -2.83649e-06 0)
(0.0637327 -3.07931e-05 0)
(0.0637216 -3.75914e-05 0)
(0.0637405 -2.32107e-05 0)
(0.0637741 5.75272e-07 0)
(0.0638033 1.97653e-05 0)
(0.0638149 2.59967e-05 0)
(0.063806 1.91966e-05 0)
(0.0637833 5.87689e-06 0)
(0.063761 -5.60487e-06 0)
(0.0637474 -1.17074e-05 0)
(0.064922 -1.24871e-05 0)
(0.0649262 -8.97722e-06 0)
(0.0649356 -2.66124e-06 0)
(0.0649466 4.49792e-06 0)
(0.0649556 8.84009e-06 0)
(0.0649585 6.6636e-06 0)
(0.0649528 -1.42499e-06 0)
(0.0649426 -8.3185e-06 0)
(0.0649372 -5.75802e-06 0)
(0.0649423 6.3504e-06 0)
(0.0649538 1.69153e-05 0)
(0.064958 1.23656e-05 0)
(0.064945 -8.14857e-06 0)
(0.0649246 -2.79231e-05 0)
(0.0649181 -2.84991e-05 0)
(0.0649342 -6.74642e-06 0)
(0.0649648 2.3836e-05 0)
(0.0649911 4.10159e-05 0)
(0.0649901 2.97249e-05 0)
(0.0649564 -1.9673e-06 0)
(0.0649155 -3.01657e-05 0)
(0.0648976 -3.76041e-05 0)
(0.0649103 -2.37693e-05 0)
(0.0649416 -1.52028e-07 0)
(0.0649727 1.92527e-05 0)
(0.0649888 2.59118e-05 0)
(0.0649844 1.95224e-05 0)
(0.0649642 6.38531e-06 0)
(0.0649418 -5.17736e-06 0)
(0.0649264 -1.15018e-05 0)
(0.0660749 -1.24589e-05 0)
(0.0660771 -9.11911e-06 0)
(0.0660853 -2.89534e-06 0)
(0.0660962 4.25333e-06 0)
(0.0661064 8.68141e-06 0)
(0.066111 6.68117e-06 0)
(0.0661062 -1.23825e-06 0)
(0.0660954 -8.11861e-06 0)
(0.0660883 -5.74006e-06 0)
(0.0660927 6.14749e-06 0)
(0.0661058 1.66995e-05 0)
(0.0661132 1.24418e-05 0)
(0.0661016 -7.74504e-06 0)
(0.0660787 -2.75561e-05 0)
(0.0660669 -2.85558e-05 0)
(0.0660789 -7.27832e-06 0)
(0.0661099 2.31251e-05 0)
(0.0661416 4.06394e-05 0)
(0.0661477 3.00711e-05 0)
(0.0661177 -1.09102e-06 0)
(0.0660746 -2.94158e-05 0)
(0.0660503 -3.74673e-05 0)
(0.066057 -2.42386e-05 0)
(0.0660857 -8.8599e-07 0)
(0.0661184 1.8658e-05 0)
(0.0661385 2.57215e-05 0)
(0.0661385 1.97728e-05 0)
(0.0661208 6.87518e-06 0)
(0.0660985 -4.72026e-06 0)
(0.0660816 -1.12436e-05 0)
(0.0672058 -1.23791e-05 0)
(0.0672061 -9.22535e-06 0)
(0.067213 -3.11923e-06 0)
(0.0672239 3.991e-06 0)
(0.0672351 8.48659e-06 0)
(0.0672412 6.66803e-06 0)
(0.0672374 -1.05177e-06 0)
(0.0672261 -7.88793e-06 0)
(0.0672174 -5.69354e-06 0)
(0.0672211 5.93108e-06 0)
(0.0672355 1.64248e-05 0)
(0.0672458 1.24644e-05 0)
(0.0672359 -7.32388e-06 0)
(0.0672109 -2.70918e-05 0)
(0.0671942 -2.85034e-05 0)
(0.0672022 -7.77524e-06 0)
(0.0672332 2.23361e-05 0)
(0.0672695 4.0111e-05 0)
(0.0672823 3.02952e-05 0)
(0.0672562 -2.17812e-07 0)
(0.0672114 -2.8553e-05 0)
(0.0671815 -3.71838e-05 0)
(0.0671824 -2.46145e-05 0)
(0.0672083 -1.61888e-06 0)
(0.067242 1.79883e-05 0)
(0.0672659 2.5429e-05 0)
(0.06727 1.99459e-05 0)
(0.0672549 7.34161e-06 0)
(0.0672329 -4.23839e-06 0)
(0.0672146 -1.09355e-05 0)
(0.0683164 -1.22487e-05 0)
(0.0683148 -9.29482e-06 0)
(0.0683205 -3.33053e-06 0)
(0.0683311 3.71378e-06 0)
(0.0683432 8.25773e-06 0)
(0.0683507 6.62413e-06 0)
(0.0683479 -8.67955e-07 0)
(0.0683362 -7.62921e-06 0)
(0.0683262 -5.6187e-06 0)
(0.0683291 5.70428e-06 0)
(0.0683447 1.60948e-05 0)
(0.0683575 1.24331e-05 0)
(0.0683493 -6.89062e-06 0)
(0.0683226 -2.65364e-05 0)
(0.0683015 -2.83433e-05 0)
(0.0683056 -8.2316e-06 0)
(0.0683362 2.14784e-05 0)
(0.0683766 3.94378e-05 0)
(0.0683956 3.03953e-05 0)
(0.0683735 6.42262e-07 0)
(0.0683276 -2.75876e-05 0)
(0.0682926 -3.67574e-05 0)
(0.068288 -2.48934e-05 0)
(0.0683109 -2.34298e-06 0)
(0.0683453 1.7251e-05 0)
(0.0683724 2.50378e-05 0)
(0.0683804 2.00401e-05 0)
(0.068368 7.77985e-06 0)
(0.0683466 -3.73668e-06 0)
(0.0683272 -1.05806e-05 0)
(0.0694081 -1.20686e-05 0)
(0.0694046 -9.3266e-06 0)
(0.0694091 -3.52691e-06 0)
(0.0694194 3.42463e-06 0)
(0.0694321 7.99712e-06 0)
(0.0694409 6.54959e-06 0)
(0.0694391 -6.89168e-07 0)
(0.0694272 -7.34534e-06 0)
(0.069416 -5.516e-06 0)
(0.0694181 5.47016e-06 0)
(0.0694345 1.57137e-05 0)
(0.0694498 1.23479e-05 0)
(0.0694433 -6.45074e-06 0)
(0.0694153 -2.58966e-05 0)
(0.0693902 -2.80773e-05 0)
(0.0693904 -8.64216e-06 0)
(0.0694204 2.05622e-05 0)
(0.0694641 3.86275e-05 0)
(0.0694888 3.03702e-05 0)
(0.069471 1.47934e-06 0)
(0.0694245 -2.65303e-05 0)
(0.069385 -3.61926e-05 0)
(0.0693751 -2.50723e-05 0)
(0.069395 -3.05063e-06 0)
(0.0694296 1.64539e-05 0)
(0.0694595 2.45519e-05 0)
(0.0694712 2.00545e-05 0)
(0.0694615 8.18532e-06 0)
(0.0694409 -3.22024e-06 0)
(0.0694206 -1.01824e-05 0)
(0.0704821 -1.18403e-05 0)
(0.0704769 -9.31998e-06 0)
(0.0704801 -3.70614e-06 0)
(0.0704899 3.12655e-06 0)
(0.0705032 7.70724e-06 0)
(0.0705132 6.44475e-06 0)
(0.0705123 -5.1769e-07 0)
(0.0705004 -7.03933e-06 0)
(0.0704881 -5.38609e-06 0)
(0.0704894 5.23175e-06 0)
(0.0705065 1.52854e-05 0)
(0.0705239 1.22092e-05 0)
(0.0705191 -6.00964e-06 0)
(0.0704902 -2.51795e-05 0)
(0.0704615 -2.77079e-05 0)
(0.070458 -9.00199e-06 0)
(0.070487 1.95973e-05 0)
(0.0705335 3.76886e-05 0)
(0.0705635 3.02196e-05 0)
(0.0705498 2.28383e-06 0)
(0.0705034 -2.53923e-05 0)
(0.0704599 -3.54949e-05 0)
(0.0704451 -2.51487e-05 0)
(0.0704618 -3.73432e-06 0)
(0.0704963 1.5605e-05 0)
(0.0705286 2.39761e-05 0)
(0.0705437 1.99886e-05 0)
(0.0705367 8.55362e-06 0)
(0.070517 -2.69425e-06 0)
(0.0704962 -9.74457e-06 0)
(0.0715395 -1.15654e-05 0)
(0.0715327 -9.27447e-06 0)
(0.0715346 -3.86607e-06 0)
(0.0715439 2.82259e-06 0)
(0.0715575 7.39074e-06 0)
(0.0715685 6.31017e-06 0)
(0.0715687 -3.55701e-07 0)
(0.0715568 -6.71428e-06 0)
(0.0715437 -5.22981e-06 0)
(0.0715441 4.99199e-06 0)
(0.0715616 1.48145e-05 0)
(0.0715809 1.2018e-05 0)
(0.0715779 -5.57258e-06 0)
(0.0715484 -2.43925e-05 0)
(0.0715165 -2.7238e-05 0)
(0.0715096 -9.30654e-06 0)
(0.0715372 1.85939e-05 0)
(0.0715859 3.66303e-05 0)
(0.0716207 2.99438e-05 0)
(0.0716112 3.0465e-06 0)
(0.0715653 -2.41853e-05 0)
(0.0715185 -3.46702e-05 0)
(0.071499 -2.51208e-05 0)
(0.0715125 -4.38668e-06 0)
(0.0715465 1.47126e-05 0)
(0.0715808 2.33156e-05 0)
(0.0715991 1.98422e-05 0)
(0.0715947 8.88063e-06 0)
(0.0715762 -2.16396e-06 0)
(0.071555 -9.27103e-06 0)
(0.0725814 -1.12459e-05 0)
(0.0725731 -9.18983e-06 0)
(0.0725737 -4.00469e-06 0)
(0.0725824 2.51583e-06 0)
(0.0725962 7.05043e-06 0)
(0.0726082 6.1466e-06 0)
(0.0726093 -2.05262e-07 0)
(0.0725976 -6.3734e-06 0)
(0.0725838 -5.04821e-06 0)
(0.0725834 4.7537e-06 0)
(0.0726011 1.43055e-05 0)
(0.072622 1.17752e-05 0)
(0.0726208 -5.14469e-06 0)
(0.0725911 -2.35433e-05 0)
(0.0725564 -2.66713e-05 0)
(0.0725461 -9.55171e-06 0)
(0.0725721 1.75623e-05 0)
(0.0726225 3.54622e-05 0)
(0.0726616 2.95441e-05 0)
(0.0726563 3.75854e-06 0)
(0.0726114 -2.29213e-05 0)
(0.0725618 -3.37257e-05 0)
(0.0725379 -2.49875e-05 0)
(0.0725482 -5.00061e-06 0)
(0.0725814 1.37854e-05 0)
(0.0726172 2.25759e-05 0)
(0.0726384 1.9616e-05 0)
(0.0726367 9.1625e-06 0)
(0.0726194 -1.63466e-06 0)
(0.0725981 -8.76599e-06 0)
(0.0736087 -1.08842e-05 0)
(0.073599 -9.06609e-06 0)
(0.0735984 -4.12012e-06 0)
(0.0736064 2.20934e-06 0)
(0.0736203 6.68927e-06 0)
(0.073633 5.95504e-06 0)
(0.073635 -6.82924e-08 0)
(0.0736237 -6.01992e-06 0)
(0.0736093 -4.84255e-06 0)
(0.0736081 4.51961e-06 0)
(0.0736259 1.37631e-05 0)
(0.0736481 1.14825e-05 0)
(0.0736486 -4.73085e-06 0)
(0.073619 -2.26399e-05 0)
(0.0735821 -2.60121e-05 0)
(0.0735685 -9.73386e-06 0)
(0.0735928 1.65127e-05 0)
(0.0736442 3.41946e-05 0)
(0.0736871 2.90227e-05 0)
(0.073686 4.41165e-06 0)
(0.0736425 -2.16126e-05 0)
(0.0735907 -3.26689e-05 0)
(0.0735628 -2.47483e-05 0)
(0.0735698 -5.56927e-06 0)
(0.0736019 1.2832e-05 0)
(0.0736389 2.17633e-05 0)
(0.0736627 1.93108e-05 0)
(0.0736636 9.39571e-06 0)
(0.0736477 -1.11162e-06 0)
(0.0736264 -8.2339e-06 0)
(0.0746223 -1.04827e-05 0)
(0.0746113 -8.90352e-06 0)
(0.0746095 -4.21066e-06 0)
(0.0746168 1.90618e-06 0)
(0.0746306 6.31034e-06 0)
(0.074644 5.7367e-06 0)
(0.0746469 5.34508e-08 0)
(0.074636 -5.65714e-06 0)
(0.0746212 -4.61428e-06 0)
(0.0746192 4.29227e-06 0)
(0.0746368 1.3192e-05 0)
(0.0746602 1.11417e-05 0)
(0.0746624 -4.33569e-06 0)
(0.0746332 -2.16905e-05 0)
(0.0745943 -2.52651e-05 0)
(0.0745778 -9.84987e-06 0)
(0.0746001 1.54551e-05 0)
(0.0746521 3.28384e-05 0)
(0.0746982 2.83828e-05 0)
(0.0747011 4.99817e-06 0)
(0.0746595 -2.02715e-05 0)
(0.0746061 -3.15084e-05 0)
(0.0745745 -2.44035e-05 0)
(0.0745782 -6.08621e-06 0)
(0.0746089 1.18613e-05 0)
(0.0746468 2.08844e-05 0)
(0.0746728 1.89285e-05 0)
(0.0746763 9.57714e-06 0)
(0.0746619 -6.00068e-07 0)
(0.0746409 -7.67937e-06 0)
(0.075623 -1.00444e-05 0)
(0.0756109 -8.70271e-06 0)
(0.0756079 -4.27477e-06 0)
(0.0756144 1.60937e-06 0)
(0.0756281 5.91686e-06 0)
(0.0756419 5.49302e-06 0)
(0.0756457 1.58396e-07 0)
(0.0756353 -5.28837e-06 0)
(0.0756202 -4.36504e-06 0)
(0.0756174 4.07405e-06 0)
(0.0756348 1.25973e-05 0)
(0.075659 1.07551e-05 0)
(0.0756629 -3.96356e-06 0)
(0.0756343 -2.07036e-05 0)
(0.075594 -2.44357e-05 0)
(0.0755746 -9.89719e-06 0)
(0.0755948 1.43994e-05 0)
(0.0756469 3.14048e-05 0)
(0.0756958 2.76283e-05 0)
(0.0757026 5.5111e-06 0)
(0.0756632 -1.89106e-05 0)
(0.0756087 -3.02534e-05 0)
(0.0755739 -2.39541e-05 0)
(0.0755742 -6.54538e-06 0)