/*--------------------------------*- C++ -*----------------------------------*\
| =========                 |                                                 |
| \\      /  F ield         | OpenFOAM: The Open Source CFD Toolbox           |
|  \\    /   O peration     | Version:  v1912                                 |
|   \\  /    A nd           | Website:  www.openfoam.com                      |
|    \\/     M anipulation  |                                                 |
\*---------------------------------------------------------------------------*/
FoamFile
{
    version     2.0;
    format      ascii;
    class       volVectorField;
    location    "0";
    object      wallShearStress;
}
// * * * * * * * * * * * * * * * * * * * * * * * * * * * * * * * * * * * * * //

dimensions      [0 2 -2 0 0 0 0];


internalField   uniform (0 0 0);

boundaryField
{
    walls
    {
        type            calculated;
        value           nonuniform List<vector> 
60
(
(-0.000128765 2.15365e-09 0)
(-0.000129012 8.60103e-10 0)
(-0.000129043 -6.14418e-10 0)
(-0.000128842 -1.8522e-09 0)
(-0.000128489 -2.09275e-09 0)
(-0.000128202 -8.01583e-10 0)
(-0.000128231 1.30014e-09 0)
(-0.000128586 2.25833e-09 0)
(-0.000128923 6.62792e-10 0)
(-0.000128807 -2.46008e-09 0)
(-0.000128187 -3.91923e-09 0)
(-0.000127603 -1.28702e-09 0)
(-0.000127762 3.8442e-09 0)
(-0.000128742 6.73676e-09 0)
(-0.000129815 4.38966e-09 0)
(-0.000130122 -1.8953e-09 0)
(-0.000129296 -7.82558e-09 0)
(-0.000127769 -8.60432e-09 0)
(-0.000126657 -2.94934e-09 0)
(-0.000126816 4.6849e-09 0)
(-0.000128029 8.55587e-09 0)
(-0.000129403 6.87431e-09 0)
(-0.000130149 1.7365e-09 0)
(-0.000129983 -3.4148e-09 0)
(-0.000129155 -5.92221e-09 0)
(-0.0001282 -5.09493e-09 0)
(-0.000127594 -2.0807e-09 0)
(-0.000127539 1.03674e-09 0)
(-0.000127882 2.71945e-09 0)
(-0.000128348 2.91657e-09 0)
(-0.000128855 -2.24371e-09 -0)
(-0.000129098 -6.45775e-10 -0)
(-0.00012907 1.07284e-09 0)
(-0.000128789 2.24642e-09 0)
(-0.000128395 2.14744e-09 0)
(-0.00012813 5.7751e-10 0)
(-0.000128204 -1.47487e-09 -0)
(-0.000128568 -2.1901e-09 -0)
(-0.000128875 -5.46217e-10 -0)
(-0.000128751 2.25276e-09 0)
(-0.0001282 3.32379e-09 0)
(-0.000127729 8.11133e-10 0)
(-0.000127925 -3.54628e-09 -0)
(-0.000128785 -5.61487e-09 -0)
(-0.000129641 -3.09918e-09 -0)
(-0.000129768 2.47064e-09 0)
(-0.000128934 7.07169e-09 0)
(-0.000127633 6.77207e-09 0)
(-0.000126849 1.29121e-09 0)
(-0.00012719 -5.02666e-09 -0)
(-0.000128336 -7.58428e-09 -0)
(-0.000129491 -5.39925e-09 -0)
(-0.000130011 -5.71447e-10 -0)
(-0.000129712 3.84475e-09 0)
(-0.000128878 5.63808e-09 0)
(-0.000128008 4.46329e-09 0)
(-0.000127505 1.50754e-09 0)
(-0.000127522 -1.38794e-09 -0)
(-0.000127901 -2.95383e-09 -0)
(-0.000128403 -3.14057e-09 -0)
)
;
    }
    inlet
    {
        type            cyclic;
    }
    outlet
    {
        type            cyclic;
    }
    sides
    {
        type            empty;
    }
}


// ************************************************************************* //
